VARIABLES=  "CoordinateX_Iced" "CoordinateY_Iced" "CoordinateZ" "s" "x2d" "y2d"
ZONE T="Slice-MESH_OUT_EXTRACTION_CASE_241_IPW1_layer020_0001Zones-Zone00001_step0_WALL-0.000576-0.000000"
0.457195772830 -0.000191467983 0.000000000000 -0.474289840173 0.468266754143 -0.000971649298 
0.457187246406 -0.000576066593 0.000000000000 -0.473905147061 0.468258227720 -0.001356247908 
0.456805197732 -0.000621095491 0.000000000000 -0.473520453948 0.467876179046 -0.001401276805 
0.456384937266 -0.000670568468 0.000000000000 -0.473097291526 0.467455918579 -0.001450749783 
0.455922642115 -0.000724915311 0.000000000000 -0.472631812863 0.466993623428 -0.001505096626 
0.455414107175 -0.000784609382 0.000000000000 -0.472119786333 0.466485088488 -0.001564790697 
0.454854706269 -0.000850166543 0.000000000000 -0.471556557148 0.465925687583 -0.001630347857 
0.454239347131 -0.000922124457 0.000000000000 -0.470937005044 0.465310328445 -0.001702305771 
0.453562432024 -0.001001106432 0.000000000000 -0.470255497733 0.464633413338 -0.001781287747 
0.452817802733 -0.001087792010 0.000000000000 -0.469505839697 0.463888784046 -0.001867973325 
0.451998682102 -0.001182901742 0.000000000000 -0.468681215862 0.463069663416 -0.001963083057 
0.451097615128 -0.001287226822 0.000000000000 -0.467774129641 0.462168596442 -0.002067408137 
0.450106403344 -0.001401654843 0.000000000000 -0.466776334785 0.461177384657 -0.002181836158 
0.449016017222 -0.001527064374 0.000000000000 -0.465678760440 0.460086998536 -0.002307245689 
0.447816533780 -0.001664503289 0.000000000000 -0.464471428678 0.458887515094 -0.002444684603 
0.446497035884 -0.001815107811 0.000000000000 -0.463143363762 0.457568017197 -0.002595289125 
0.445045503841 -0.001980031730 0.000000000000 -0.461682492389 0.456116485155 -0.002760213044 
0.443448718017 -0.002160560700 0.000000000000 -0.460075533871 0.454519699330 -0.002940742014 
0.441692139476 -0.002358130591 0.000000000000 -0.458307879483 0.452763120789 -0.003138311905 
0.439759767869 -0.002574252585 0.000000000000 -0.456363459585 0.450830749183 -0.003354433899 
0.437633954537 -0.002810150629 0.000000000000 -0.454224597689 0.448704935851 -0.003590331943 
0.435295367925 -0.003067901807 0.000000000000 -0.451871849718 0.446366349238 -0.003848083122 
0.432722694130 -0.003349345776 0.000000000000 -0.449283827083 0.443793675444 -0.004129527090 
0.429892479489 -0.003656422911 0.000000000000 -0.446437002311 0.440963460802 -0.004436604226 
0.426778911373 -0.003991132089 0.000000000000 -0.443305495222 0.437849892686 -0.004771313404 
0.423353593333 -0.004355638383 0.000000000000 -0.439860837254 0.434424574646 -0.005135819697 
0.419585306094 -0.004752466698 0.000000000000 -0.436071713157 0.430656287408 -0.005532648013 
0.415439622602 -0.005183556874 0.000000000000 -0.431903676406 0.426510603916 -0.005963738189 
0.410878712533 -0.005651378824 0.000000000000 -0.427318836383 0.421949693846 -0.006431560138 
0.405860986014 -0.006158853296 0.000000000000 -0.422275513098 0.416931967327 -0.006939034611 
0.400790394225 -0.006664001779 0.000000000000 -0.417179821184 0.411861375539 -0.007444183094 
0.395716818616 -0.007162372535 0.000000000000 -0.412081827179 0.406787799929 -0.007942553850 
0.390640354016 -0.007654192276 0.000000000000 -0.406981593902 0.401711335330 -0.008434373591 
0.385560673510 -0.008135200589 0.000000000000 -0.401879190249 0.396631654824 -0.008915381904 
0.380478395108 -0.008611055206 0.000000000000 -0.396774683281 0.391549376421 -0.009391236520 
0.375393319583 -0.009078886000 0.000000000000 -0.391668132709 0.386464300896 -0.009859067314 
0.370305564466 -0.009539032617 0.000000000000 -0.386559611687 0.381376545780 -0.010319213932 
0.365215470119 -0.009994516081 0.000000000000 -0.381449178667 0.376286451433 -0.010774697395 
0.360122521680 -0.010438581371 0.000000000000 -0.376336907373 0.371193502993 -0.011218762685 
0.355027501935 -0.010879369300 0.000000000000 -0.371222856123 0.366098483249 -0.011659550614 
0.349929740891 -0.011308108774 0.000000000000 -0.366107097605 0.361000722204 -0.012088290089 
0.344830162830 -0.011734878644 0.000000000000 -0.360989693096 0.355901144144 -0.012515059959 
0.339727915202 -0.012148427976 0.000000000000 -0.355870713323 0.350798896516 -0.012928609290 
0.334624050348 -0.012560742024 0.000000000000 -0.350750221226 0.345695031662 -0.013340923338 
0.329517610318 -0.012958853140 0.000000000000 -0.345628285826 0.340588591632 -0.013739034455 
0.324409722403 -0.013356111484 0.000000000000 -0.340504973114 0.335480703717 -0.014136292798 
0.319299482126 -0.013739797462 0.000000000000 -0.335380349165 0.330370463439 -0.014519978776 
0.314187874267 -0.014121844577 0.000000000000 -0.330254483881 0.325258855580 -0.014902025892 
0.309074032352 -0.014489550702 0.000000000000 -0.325127439224 0.320145013666 -0.015269732016 
0.303958893874 -0.014854649096 0.000000000000 -0.319999287657 0.315029875188 -0.015634830410 
0.298841887380 -0.015208079924 0.000000000000 -0.314870089980 0.309912868693 -0.015988261239 
0.293723572293 -0.015556599386 0.000000000000 -0.309739922814 0.304794553606 -0.016336780701 
0.288603453654 -0.015891850570 0.000000000000 -0.304608840255 0.299674434968 -0.016672031884 
0.283482134170 -0.016221514327 0.000000000000 -0.299476921370 0.294553115484 -0.017001695642 
0.278359411684 -0.016541377422 0.000000000000 -0.294344222463 0.289430392998 -0.017321558737 
0.273235455164 -0.016852570455 0.000000000000 -0.289210824804 0.284306436478 -0.017632751770 
0.268110246891 -0.017153689058 0.000000000000 -0.284076778422 0.279181228205 -0.017933870372 
0.262983884505 -0.017444624144 0.000000000000 -0.278942166992 0.274054865819 -0.018224805459 
0.257856573629 -0.017727800561 0.000000000000 -0.273807042290 0.268927554942 -0.018507981875 
0.252728113168 -0.017997641171 0.000000000000 -0.268671487729 0.263799094482 -0.018777822485 
0.247598943472 -0.018261141800 0.000000000000 -0.263535554089 0.258669924786 -0.019041323114 
0.242468605906 -0.018507080985 0.000000000000 -0.258399324964 0.253539587220 -0.019287262299 
0.237337805665 -0.018748418988 0.000000000000 -0.253262851937 0.248408786978 -0.019528600303 
0.232205995324 -0.018971073664 0.000000000000 -0.248126213691 0.243276976638 -0.019751254979 
0.227073967432 -0.019191060466 0.000000000000 -0.242989473043 0.238144948745 -0.019971241781 
0.221940859989 -0.019385174952 0.000000000000 -0.237852696579 0.233011841303 -0.020165356267 
0.216807663530 -0.019575837221 0.000000000000 -0.232715960457 0.227878644844 -0.020356018536 
0.211673867635 -0.019746795207 0.000000000000 -0.227579318856 0.222744848948 -0.020526976522 
0.206540008707 -0.019910164561 0.000000000000 -0.222442861221 0.217610990020 -0.020690345876 
0.201405749683 -0.020052695835 0.000000000000 -0.217306624185 0.212476730997 -0.020832877149 
0.196271515864 -0.020184060219 0.000000000000 -0.212170710098 0.207342497177 -0.020964241533 
0.191137204469 -0.020297428434 0.000000000000 -0.207035147242 0.202208185783 -0.021077609749 
0.186003041214 -0.020395603029 0.000000000000 -0.201900045433 0.197074022528 -0.021175784344 
0.180869087847 -0.020478290273 0.000000000000 -0.196765426231 0.191940069161 -0.021258471588 
0.175735432730 -0.020539139350 0.000000000000 -0.191631410505 0.186806414043 -0.021319320664 
0.170736321107 -0.020580491110 0.000000000000 -0.186632127858 0.181807302421 -0.021360672425 
0.165362209913 -0.020604525753 0.000000000000 -0.181257962919 0.176433191227 -0.021384707067 
0.160171562206 -0.020608407518 0.000000000000 -0.176067313761 0.171242543520 -0.021388588833 
0.155054715734 -0.020596119837 0.000000000000 -0.170950452535 0.166125697048 -0.021376301152 
0.149394874016 -0.020570248041 0.000000000000 -0.165290551686 0.160465855330 -0.021350429355 
0.143367645609 -0.020515504137 0.000000000000 -0.159263074671 0.154438626923 -0.021295685451 
0.137339022265 -0.020420117173 0.000000000000 -0.153233696752 0.148410003579 -0.021200298488 
0.131932421590 -0.020293620893 0.000000000000 -0.147825616485 0.143003402903 -0.021073802207 
0.126917236461 -0.020140878570 0.000000000000 -0.142808105937 0.137988217775 -0.020921059885 
0.122581365704 -0.019982654902 0.000000000000 -0.138469349209 0.133652347018 -0.020762836216 
0.118174828767 -0.019795486387 0.000000000000 -0.134058839053 0.129245810080 -0.020575667701 
0.113809011620 -0.019584690501 0.000000000000 -0.129687935912 0.124879992933 -0.020364871816 
0.109633595283 -0.019366225660 0.000000000000 -0.125506808257 0.120704576597 -0.020146406974 
0.105531079026 -0.019149257654 0.000000000000 -0.121398558659 0.116602060339 -0.019929438969 
0.101520372379 -0.018947133792 0.000000000000 -0.117382762117 0.112591353692 -0.019727315106 
0.098069574645 -0.018781648008 0.000000000000 -0.113927998661 0.109140555959 -0.019561829323 
0.095540625571 -0.018661473526 0.000000000000 -0.111396195879 0.106611606885 -0.019441654841 
0.093297413973 -0.018549744138 0.000000000000 -0.109150203508 0.104368395286 -0.019329925453 
0.091107933469 -0.018430781640 0.000000000000 -0.106957493551 0.102178914783 -0.019210962955 
0.088704901792 -0.018282183834 0.000000000000 -0.104549871789 0.099775883105 -0.019062365149 
0.087033119715 -0.018168477417 0.000000000000 -0.102874227298 0.098104101028 -0.018948658732 
0.085497606619 -0.018061305539 0.000000000000 -0.101334978690 0.096568587933 -0.018841486854 
0.084057628116 -0.017962243075 0.000000000000 -0.099891596737 0.095128609430 -0.018742424389 
0.082825497974 -0.017885146576 0.000000000000 -0.098657056920 0.093896479287 -0.018665327891 
0.081686590864 -0.017821280725 0.000000000000 -0.097516360532 0.092757572178 -0.018601462039 
0.080334693053 -0.017755877002 0.000000000000 -0.096162881556 0.091405674367 -0.018536058317 
0.079204575150 -0.017708268343 0.000000000000 -0.095031761289 0.090275556464 -0.018488449658 
0.078198453479 -0.017671645085 0.000000000000 -0.094024973287 0.089269434793 -0.018451826400 
0.077110849324 -0.017632854161 0.000000000000 -0.092936677585 0.088181830637 -0.018413035476 
0.076065751398 -0.017587491434 0.000000000000 -0.091890595633 0.087136732712 -0.018367672748 
0.075409573706 -0.017564348264 0.000000000000 -0.091234009942 0.086480555020 -0.018344529579 
0.074876352001 -0.017525731404 0.000000000000 -0.090699391715 0.085947333315 -0.018305912719 
0.074254664936 -0.017496961688 0.000000000000 -0.090077039320 0.085325646250 -0.018277143002 
0.073585877417 -0.017461421389 0.000000000000 -0.089407308136 0.084656858731 -0.018241602703 
0.073047218900 -0.017411158110 0.000000000000 -0.088866309619 0.084118200213 -0.018191339425 
0.072478206204 -0.017343581057 0.000000000000 -0.088293298183 0.083549187518 -0.018123762372 
0.071947619542 -0.017292018779 0.000000000000 -0.087760212004 0.083018600855 -0.018072200093 
0.071341712630 -0.017233462031 0.000000000000 -0.087151482114 0.082412693944 -0.018013643345 
0.070682656877 -0.017165562444 0.000000000000 -0.086488937897 0.081753638191 -0.017945743758 
0.070044953444 -0.017099057489 0.000000000000 -0.085847776001 0.081115934758 -0.017879238803 
0.069423535364 -0.017043312954 0.000000000000 -0.085223862639 0.080494516678 -0.017823494269 
0.068745244351 -0.017015958581 0.000000000000 -0.084545020271 0.079816225664 -0.017796139896 
0.068112359763 -0.016923354089 0.000000000000 -0.083905396558 0.079183341076 -0.017703535403 
0.067451758553 -0.016878881318 0.000000000000 -0.083243300050 0.078522739866 -0.017659062632 
0.066873763640 -0.016810400852 0.000000000000 -0.082661262514 0.077944744953 -0.017590582167 
0.066299778927 -0.016760129388 0.000000000000 -0.082085080536 0.077370760240 -0.017540310703 
0.065668147912 -0.016698111115 0.000000000000 -0.081450412116 0.076739129226 -0.017478292429 
0.065119131859 -0.016635746136 0.000000000000 -0.080897865270 0.076190113173 -0.017415927451 
0.064380112221 -0.016578543998 0.000000000000 -0.080156635136 0.075451093535 -0.017358725313 
0.063582616980 -0.016509525284 0.000000000000 -0.079356158877 0.074653598294 -0.017289706598 
0.062934369739 -0.016437506442 0.000000000000 -0.078703923337 0.074005351053 -0.017217687757 
0.062258566507 -0.016367145348 0.000000000000 -0.078024467163 0.073329547821 -0.017147326662 
0.061461811321 -0.016290117655 0.000000000000 -0.077223997244 0.072532792635 -0.017070298970 
0.060753717637 -0.016229148907 0.000000000000 -0.076513283622 0.071824698951 -0.017009330221 
0.059974658191 -0.016155950644 0.000000000000 -0.075730792979 0.071045639505 -0.016936131959 
0.059192909706 -0.016080112610 0.000000000000 -0.074945374554 0.070263891020 -0.016860293924 
0.058486903072 -0.016002134020 0.000000000000 -0.074235074598 0.069557884386 -0.016782315334 
0.057815015267 -0.015934416828 0.000000000000 -0.073559782927 0.068885996581 -0.016714598143 
0.057111386465 -0.015859217477 0.000000000000 -0.072852147121 0.068182367778 -0.016639398791 
0.056373692357 -0.015796719622 0.000000000000 -0.072111810320 0.067444673670 -0.016576900937 
0.055571567616 -0.015701055212 0.000000000000 -0.071304001074 0.066642548930 -0.016481236527 
0.054853943000 -0.015618984951 0.000000000000 -0.070581698770 0.065924924313 -0.016399166265 
0.054092595264 -0.015557100674 0.000000000000 -0.069817840120 0.065163576578 -0.016337281989 
0.053256588843 -0.015447006462 0.000000000000 -0.068974615670 0.064327570157 -0.016227187777 
0.052342768762 -0.015349759909 0.000000000000 -0.068055635784 0.063413750076 -0.016129941223 
0.051416872829 -0.015245290055 0.000000000000 -0.067123864765 0.062487854142 -0.016025471370 
0.050493738984 -0.015159740068 0.000000000000 -0.066196775290 0.061564720297 -0.015939921383 
0.049683051890 -0.015054475319 0.000000000000 -0.065379282641 0.060754033204 -0.015834656634 
0.048806006246 -0.014952764082 0.000000000000 -0.064496358954 0.059876987560 -0.015732945397 
0.047794819273 -0.014842488475 0.000000000000 -0.063479176667 0.058865800587 -0.015622669790 
0.047035699603 -0.014781472258 0.000000000000 -0.062717608776 0.058106680917 -0.015561653573 
0.046239891333 -0.014708388009 0.000000000000 -0.061918451652 0.057310872647 -0.015488569323 
0.045324671575 -0.014606202438 0.000000000000 -0.060997544981 0.056395652889 -0.015386383752 
0.044478951575 -0.014502243166 0.000000000000 -0.060145459393 0.055549932889 -0.015282424480 
0.043757341771 -0.014419047643 0.000000000000 -0.059419069550 0.054828323085 -0.015199228958 
0.043031622666 -0.014342420947 0.000000000000 -0.058689316256 0.054102603979 -0.015122602262 
0.042336371912 -0.014258124306 0.000000000000 -0.057988973815 0.053407353225 -0.015038305620 
0.041697221608 -0.014153528191 0.000000000000 -0.057341321549 0.052768202922 -0.014933709505 
0.041103956510 -0.014096863779 0.000000000000 -0.056745356506 0.052174937824 -0.014877045094 
0.040364007541 -0.014017157731 0.000000000000 -0.056001127017 0.051434988854 -0.014797339046 
0.039717895742 -0.013940026657 0.000000000000 -0.055350427656 0.050788877055 -0.014720207972 
0.038990720265 -0.013854368389 0.000000000000 -0.054618224465 0.050061701579 -0.014634549703 
0.038312135781 -0.013771822321 0.000000000000 -0.053934637781 0.049383117095 -0.014552003636 
0.037594227459 -0.013692017930 0.000000000000 -0.053212307454 0.048665208772 -0.014472199244 
0.036868129884 -0.013607557201 0.000000000000 -0.052481314087 0.047939111197 -0.014387738516 
0.035980685175 -0.013513841066 0.000000000000 -0.051588934781 0.047051666489 -0.014294022380 
0.035145373903 -0.013416313585 0.000000000000 -0.050747949329 0.046216355216 -0.014196494899 
0.034313060707 -0.013316908565 0.000000000000 -0.049909721070 0.045384042021 -0.014097089879 
0.033554751755 -0.013237026999 0.000000000000 -0.049147216296 0.044625733069 -0.014017208314 
0.032848878215 -0.013139516845 0.000000000000 -0.048434639504 0.043919859529 -0.013919698160 
0.032161205837 -0.013061021574 0.000000000000 -0.047742501651 0.043232187151 -0.013841202888 
0.031428131968 -0.012982908380 0.000000000000 -0.047005277826 0.042499113282 -0.013763089695 
0.030754033050 -0.012878117894 0.000000000000 -0.046323082547 0.041825014363 -0.013658299209 
0.030039368616 -0.012783858465 0.000000000000 -0.045602228823 0.041110349930 -0.013564039780 
0.029372167096 -0.012693081076 0.000000000000 -0.044928880174 0.040443148410 -0.013473262391 
0.028677316196 -0.012610610142 0.000000000000 -0.044229152207 0.039748297510 -0.013390791457 
0.028019835962 -0.012526341765 0.000000000000 -0.043566293687 0.039090817275 -0.013306523080 
0.027382458024 -0.012441017708 0.000000000000 -0.042923230058 0.038453439338 -0.013221199022 
0.026850209308 -0.012362892421 0.000000000000 -0.042385278149 0.037921190621 -0.013143073736 
0.026101834005 -0.012260002642 0.000000000000 -0.041629863097 0.037172815318 -0.013040183957 
0.025460393309 -0.012192830746 0.000000000000 -0.040984914859 0.036531374622 -0.012973012061 
0.024707546667 -0.012090520392 0.000000000000 -0.040225148134 0.035778527980 -0.012870701706 
0.023888154329 -0.011990793661 0.000000000000 -0.039399709327 0.034959135642 -0.012770974976 
0.023132523041 -0.011882297445 0.000000000000 -0.038636328641 0.034203504354 -0.012662478760 
0.022462717188 -0.011796518343 0.000000000000 -0.037961052449 0.033533698501 -0.012576699657 
0.021714883647 -0.011692812798 0.000000000000 -0.037206062486 0.032785864961 -0.012472994112 
0.020926376849 -0.011578941693 0.000000000000 -0.036409375848 0.031997358162 -0.012359123008 
0.020114359827 -0.011464543976 0.000000000000 -0.035589340190 0.031185341141 -0.012244725291 
0.019212021005 -0.011331331969 0.000000000000 -0.034677221343 0.030283002318 -0.012111513284 
0.018402464814 -0.011215670297 0.000000000000 -0.033859444572 0.029473446127 -0.011995851611 
0.017526786280 -0.011090432735 0.000000000000 -0.032974855774 0.028597767594 -0.011870614049 
0.016629907182 -0.010945939346 0.000000000000 -0.032066411799 0.027700888496 -0.011726120661 
0.015852945487 -0.010834237016 0.000000000000 -0.031281461554 0.026923926801 -0.011614418330 
0.015084107451 -0.010719011679 0.000000000000 -0.030504037086 0.026155088765 -0.011499192994 
0.014438678919 -0.010608132830 0.000000000000 -0.029849153807 0.025509660232 -0.011388314145 
0.013718063637 -0.010501362307 0.000000000000 -0.029120671597 0.024789044950 -0.011281543621 
0.013088691186 -0.010374105962 0.000000000000 -0.028478562682 0.024159672500 -0.011154287276 
0.012358827378 -0.010274203746 0.000000000000 -0.027741893400 0.023429808691 -0.011054385061 
0.011628748960 -0.010138293088 0.000000000000 -0.026999272229 0.022699730273 -0.010918474402 
0.011052918634 -0.010026139607 0.000000000000 -0.026412621595 0.022123899948 -0.010806320921 
0.010499787374 -0.009934443552 0.000000000000 -0.025851941332 0.021570768688 -0.010714624867 
0.009951497860 -0.009828302202 0.000000000000 -0.025293472552 0.021022479173 -0.010608483517 
0.009388802074 -0.009731607594 0.000000000000 -0.024722529127 0.020459783388 -0.010511788908 
0.008789105200 -0.009629158421 0.000000000000 -0.024114144238 0.019860086514 -0.010409339736 
0.008148914758 -0.009497406429 0.000000000000 -0.023460537024 0.019219896072 -0.010277587744 
0.007453095948 -0.009368149305 0.000000000000 -0.022752814465 0.018524077262 -0.010148330620 
0.006549543751 -0.009174930153 0.000000000000 -0.021828833830 0.017620525065 -0.009955111467 
0.005779567499 -0.009010999385 0.000000000000 -0.021041600240 0.016850548813 -0.009791180699 
0.004918702308 -0.008821685762 0.000000000000 -0.020160164749 0.015989683621 -0.009601867076 
0.003983084380 -0.008615604896 0.000000000000 -0.019202119744 0.015054065693 -0.009395786210 
0.002911413123 -0.008379396209 0.000000000000 -0.018104725637 0.013982394436 -0.009159577524 
0.001657255054 -0.008093563154 0.000000000000 -0.016818408025 0.012728236367 -0.008873744468 
0.000305766049 -0.007766256622 0.000000000000 -0.015427849830 0.011376747363 -0.008546437937 
-0.000841585392 -0.007463723261 0.000000000000 -0.014241282612 0.010229395922 -0.008243904576 
-0.002030989370 -0.007134244089 0.000000000000 -0.013007087186 0.009039991943 -0.007914425403 
-0.003306679445 -0.006743174995 0.000000000000 -0.011672800784 0.007764301868 -0.007523356310 
-0.004390095127 -0.006368434644 0.000000000000 -0.010526406492 0.006680886186 -0.007148615958 
-0.005145339798 -0.006097299605 0.000000000000 -0.009723967260 0.005925641515 -0.006877480920 
-0.006020925021 -0.005741163948 0.000000000000 -0.008778725445 0.005050056293 -0.006521345263 
-0.006839151861 -0.005363609636 0.000000000000 -0.007877591481 0.004231829452 -0.006143790951 
-0.007641061463 -0.004924175347 0.000000000000 -0.006963172812 0.003429919851 -0.005704356662 
-0.008312201495 -0.004449111576 0.000000000000 -0.006140910974 0.002758779819 -0.005229292891 
-0.008951465113 -0.003914115922 0.000000000000 -0.005307317355 0.002119516201 -0.004694297237 
-0.009538704168 -0.003310541195 0.000000000000 -0.004465205628 0.001532277145 -0.004090722510 
-0.009993880681 -0.002729836047 0.000000000000 -0.003727368162 0.001077100633 -0.003510017362 
-0.010335448655 -0.002173438523 0.000000000000 -0.003074492304 0.000735532658 -0.002953619837 
-0.010649538165 -0.001496319110 0.000000000000 -0.002328072235 0.000421443149 -0.002276500425 
-0.010874746224 -0.000762312867 0.000000000000 -0.001560293728 0.000196235090 -0.001542494181 
-0.011021111231 -0.000092055550 0.000000000000 -0.000874241554 0.000049870083 -0.000872236864 
-0.011074666385 0.000640042127 0.000000000000 -0.000140187630 -0.000003685071 -0.000140139188 
-0.011058702470 0.001247132186 0.000000000000 0.000467112285 0.000012278844 0.000466950872 
-0.010966193818 0.001832486384 0.000000000000 0.001059731376 0.000104787495 0.001052305069 
-0.010813133620 0.002476490299 0.000000000000 0.001721674324 0.000257847693 0.001696308985 
-0.010569042554 0.003150466812 0.000000000000 0.002438490053 0.000501938759 0.002370285498 
-0.010294851769 0.003749396670 0.000000000000 0.003097199065 0.000776129545 0.002969215356 
-0.009973458224 0.004304764286 0.000000000000 0.003738858631 0.001097523089 0.003524582972 
-0.009484133145 0.005013909698 0.000000000000 0.004600442201 0.001586848168 0.004233728383 
-0.008911882058 0.005731738289 0.000000000000 0.005518455923 0.002159099256 0.004951556975 
-0.008263959228 0.006464784680 0.000000000000 0.006496801979 0.002807022086 0.005684603365 
-0.007608954182 0.007167597920 0.000000000000 0.007457519450 0.003462027132 0.006387416605 
-0.006983532468 0.007779106265 0.000000000000 0.008332216413 0.004087448846 0.006998924950 
-0.006335413192 0.008391284617 0.000000000000 0.009223743715 0.004735568122 0.007611103303 
-0.005655034581 0.009006479320 0.000000000000 0.010141011166 0.005415946733 0.008226298005 
-0.004802194914 0.009728960509 0.000000000000 0.011258738577 0.006268786400 0.008948779194 
-0.003939102051 0.010417264221 0.000000000000 0.012362682095 0.007131879263 0.009637082907 
-0.003145570329 0.011022543677 0.000000000000 0.013360708053 0.007925410984 0.010242362362 
-0.002298688547 0.011638701090 0.000000000000 0.014408018280 0.008772292767 0.010858519776 
-0.001440083606 0.012235479777 0.000000000000 0.015453650742 0.009630897708 0.011455298462 
-0.000601727058 0.012795196731 0.000000000000 0.016461680886 0.010469254256 0.012015015417 
0.000263964034 0.013356059969 0.000000000000 0.017493179135 0.011334945347 0.012575878655 
0.001274970856 0.013993788158 0.000000000000 0.018688516760 0.012345952170 0.013213606843 
0.002113212242 0.014487274646 0.000000000000 0.019661233335 0.013184193556 0.013707093332 
0.002888096774 0.014943466852 0.000000000000 0.020560431514 0.013959078087 0.014163285537 
0.003630699060 0.015360235489 0.000000000000 0.021411991407 0.014701680373 0.014580054175 
0.004406262307 0.015805972037 0.000000000000 0.022306518892 0.015477243620 0.015025790723 
0.005119201508 0.016198583114 0.000000000000 0.023120414317 0.016190182821 0.015418401799 
0.005793237495 0.016560436908 0.000000000000 0.023885438943 0.016864218808 0.015780255593 
0.006516715404 0.016961867955 0.000000000000 0.024712824688 0.017587696718 0.016181686641 
0.007288238013 0.017348744484 0.000000000000 0.025575912508 0.018359219327 0.016568563169 
0.008012531213 0.017714463959 0.000000000000 0.026387301055 0.019083512527 0.016934282644 
0.008714051131 0.018075550310 0.000000000000 0.027176296332 0.019785032444 0.017295368995 
0.009375355294 0.018397949449 0.000000000000 0.027912003068 0.020446336607 0.017617768134 
0.010092287303 0.018749848306 0.000000000000 0.028710642106 0.021163268617 0.017969666992 
0.010826310369 0.019099772923 0.000000000000 0.029523806971 0.021897291682 0.018319591609 
0.011432583037 0.019404324960 0.000000000000 0.030202274724 0.022503564351 0.018624143646 
0.012153199712 0.019734255111 0.000000000000 0.030994829010 0.023224181025 0.018954073797 
0.013059799955 0.020130956540 0.000000000000 0.031984422878 0.024130781268 0.019350775225 
0.013832286272 0.020442220074 0.000000000000 0.032817261456 0.024903267586 0.019662038759 
0.014535887487 0.020742861324 0.000000000000 0.033582401856 0.025606868801 0.019962680009 
0.015385134024 0.021103895905 0.000000000000 0.034505205004 0.026456115338 0.020323714591 
0.016285957737 0.021458550380 0.000000000000 0.035473328528 0.027356939051 0.020678369065 
0.017021255496 0.021749650185 0.000000000000 0.036264152080 0.028092236809 0.020969468871 
0.017733932907 0.022031533345 0.000000000000 0.037030550938 0.028804914221 0.021251352031 
0.018351739037 0.022250008818 0.000000000000 0.037685849302 0.029422720350 0.021469827504 
0.018914588889 0.022444886833 0.000000000000 0.038281481233 0.029985570203 0.021664705519 
0.019575089983 0.022702308756 0.000000000000 0.038990373144 0.030646071297 0.021922127442 
0.020153327393 0.022896756768 0.000000000000 0.039600429314 0.031224308706 0.022116575453 
0.020641113392 0.023058712681 0.000000000000 0.040114399060 0.031712094706 0.022278531366 
0.021111923194 0.023213524413 0.000000000000 0.040610008323 0.032182904508 0.022433343099 
0.021617328249 0.023378249859 0.000000000000 0.041141580276 0.032688309562 0.022598068545 
0.022202038970 0.023573138904 0.000000000000 0.041757914900 0.033273020284 0.022792957590 
0.022867689426 0.023783748567 0.000000000000 0.042456088917 0.033938670739 0.023003567252 
0.023468489067 0.023971337276 0.000000000000 0.043085493186 0.034539470381 0.023191155962 
0.024054097913 0.024153304942 0.000000000000 0.043698722304 0.035125079227 0.023373123627 
0.024621341554 0.024319576342 0.000000000000 0.044289832723 0.035692322868 0.023539395027 
0.025228055519 0.024500889107 0.000000000000 0.044923059502 0.036299036833 0.023720707792 
0.025829690956 0.024678853529 0.000000000000 0.045550464104 0.036900672270 0.023898672215 
0.026470566692 0.024869744162 0.000000000000 0.046219165041 0.037541548006 0.024089562848 
0.027100167955 0.025045974043 0.000000000000 0.046872965256 0.038171149269 0.024265792729 
0.027639259539 0.025205576379 0.000000000000 0.047435186424 0.038710240853 0.024425395065 
0.028444033474 0.025443892708 0.000000000000 0.048274505052 0.039515014788 0.024663711394 
0.029053919158 0.025609326202 0.000000000000 0.048906429721 0.040124900471 0.024829144887 
0.029783666985 0.025787001707 0.000000000000 0.049657495948 0.040854648299 0.025006820393 
0.030566636365 0.025967078623 0.000000000000 0.050460906643 0.041637617678 0.025186897308 
0.031045074184 0.026084462192 0.000000000000 0.050953533935 0.042116055498 0.025304280877 
0.031559351075 0.026200756611 0.000000000000 0.051480795837 0.042630332389 0.025420575297 
0.032286137318 0.026357336341 0.000000000000 0.052224257641 0.043357118632 0.025577155026 
0.032821205630 0.026479943079 0.000000000000 0.052773193440 0.043892186944 0.025699761765 
0.033266351020 0.026581876847 0.000000000000 0.053229860618 0.044337332334 0.025801695533 
0.033794536238 0.026703155064 0.000000000000 0.053771790530 0.044865517552 0.025922973749 
0.034375275778 0.026837263128 0.000000000000 0.054367813504 0.045446257091 0.026057081813 
0.034877748325 0.026953552876 0.000000000000 0.054883567289 0.045948729638 0.026173371561 
0.035568745792 0.027113554983 0.000000000000 0.055592847327 0.046639727105 0.026333373669 
0.036267430296 0.027275412073 0.000000000000 0.056310034718 0.047338411609 0.026495230759 
0.037113379815 0.027471635019 0.000000000000 0.057178443628 0.048184361129 0.026691453704 
0.037987681848 0.027674703966 0.000000000000 0.058076018718 0.049058663162 0.026894522652 
0.038941689566 0.027896169699 0.000000000000 0.059055394946 0.050012670880 0.027115988385 
0.040227919043 0.028194135124 0.000000000000 0.060375686453 0.051298900357 0.027413953809 
0.041940961514 0.028587529391 0.000000000000 0.062133319394 0.053011942827 0.027807348077 
0.043667770823 0.028976445671 0.000000000000 0.063903383309 0.054738752137 0.028196264357 
0.045349071294 0.029344803112 0.000000000000 0.065624562695 0.056420052608 0.028564621797 
0.047099868800 0.029717019564 0.000000000000 0.067414489227 0.058170850113 0.028936838249 
0.049048489926 0.030117181399 0.000000000000 0.069403773971 0.060119471240 0.029337000084 
0.050910052285 0.030481207402 0.000000000000 0.071300594823 0.061981033599 0.029701026088 
0.052845375220 0.030836735674 0.000000000000 0.073268302935 0.063916356533 0.030056554360 
0.055384837918 0.031264348675 0.000000000000 0.075843516261 0.066455819232 0.030484167361 
0.058093659482 0.031675914586 0.000000000000 0.078583425158 0.069164640795 0.030895733271 
0.060842667271 0.032055271718 0.000000000000 0.081358484736 0.071913648585 0.031275090404 
0.063697054609 0.032410868688 0.000000000000 0.084234936766 0.074768035923 0.031630687373 
0.067063103606 0.032782832182 0.000000000000 0.087621475218 0.078134084920 0.032002650867 
0.071257692507 0.033180166891 0.000000000000 0.091834840966 0.082328673821 0.032399985576 
0.075378190622 0.033511467305 0.000000000000 0.095968636398 0.086449171935 0.032731285991 
0.078906438687 0.033758658541 0.000000000000 0.099505533048 0.089977420000 0.032978477226 
0.083827578705 0.034051203996 0.000000000000 0.104435360826 0.094898560018 0.033271022682 