VARIABLES=  "CoordinateX" "CoordinateY" "CoordinateZ" "Cp" "CpSum" "CpSum2" "Cf" "CfSum" "CfxSum" "CfySum" "CfzSum" "CfSum2" "Cf-X" "Cf-Y" "Cf-Z" "Rho" "U" "V" "W" "P" "T" "Q" "Tedge" "TRec" "HTC" "y+" "ks+" "mu" "turbulenceIndex" "CollectionEfficiency" "DropKineticEnergy" "ImpingementMassRate" "WallBlanking" "AoImpact" "UdImpact" "VdImpact" "WdImpact" "Ud" "Vd" "Wd" "IceThickness" "IceVolume" "SmoothedCollectionEfficiency" "InMassRate" "OutMassRate" "WaterAccumulationMassRate" "IceMassRate" "EvaporationMassRate" "SublimationMassRate" "ImpingementEnergyRate" "KineticEnergyRate" "InEnergyRate" "OutEnergyRate" "WaterAccumulationEnergyRate" "IceEnergyRate" "EvaporationEnergyRate" "SublimationEnergyRate" "ConvectiveEnergyRate" "WallTemperature" "FreezingFraction" "IceDensity" "DropletVelocityNorm" "RecoveryTemperature" "EdgeTemperature" "Weight" "CoordinateX_Iced" "CoordinateY_Iced" "CoordinateZ_Iced" "IceAccretionRateGeo" "IceAccretionRateGeoOld" "IceDensityGeo" "s" "x2d" "y2d" "x2d_ice" "y2d_ice" "sClean" "hIce"
ZONE T="Slice-SOL_SURFACE_DROP_DATA_BF_LAGRANGIAN_CASE_241_IPW1_layer020_20_LAYERS_DISTRIBUTION_DROP_LAGRANGIAN_NO_SLD-step0_WALL-0.000576-0.000000"
AUXDATA HIGHLIGHT_X  = "-0.000297954642"
AUXDATA HIGHLIGHT_Y  = "0.002061321642"
AUXDATA HIGHLIGHT_Z  = "0.000000000000"
AUXDATA LOWER_HORN_HEIGHT  = "0.000589098455"
AUXDATA LOWER_HORN_ANGLE  = "256.218722006026"
AUXDATA UPPER_HORN_HEIGHT  = "0.000576693944"
AUXDATA UPPER_HORN_ANGLE  = "139.389421935915"
AUXDATA INTEGRATED_ICE_MASS  = "0.000000000000"
0.457195772830 -0.000191467983 0.000000000000 -0.031284512940 0.000000000000 0.000000000000 0.000532123198 0.000000000000 0.000000000000 0.000000000000 0.000000000000 0.000000000000 -0.000028346280 -0.000306254201 0.000000000000 0.949156528046 0.000000000000 0.000000000000 0.000000000000 0.997686901324 1.051130000000 1237.225341266261 252.981194470111 257.895678291119 150.726238768384 0.000000000000 0.000000000000 1.040630326104 0.000000000000 0.000000000000 0.000000000000 0.000000000000 0.000000000000 0.000000000000 0.000000000000 0.000000000000 0.000000000000 0.000000000000 0.000000000000 0.000000000000 0.000000000000 0.000000000000 0.000000000000 0.000000000000 0.000000000000 0.000000000000 0.000000000000 0.000000000000 0.000000000000 0.000000000000 0.000000000000 0.000000000000 0.000000000000 0.000000000000 0.000000000000 0.000000000000 0.000000000000 -12.025238872816 257.813067132847 0.000000000000 880.000000000000 103.662379135405 257.895678291119 252.981194470111 0.000153403709 0.457195772830 -0.000191467983 0.000000000000 0.000000000000 0.000000000000 880.000000000000 -0.464281870775 0.457493727472 -0.002252789626 0.457493727472 -0.002252789626 -0.464281870775 0.000000000000 
0.457187246406 -0.000576066593 0.000000000000 0.018517169575 0.000000000000 0.000000000000 0.000528741253 0.000000000000 0.000000000000 0.000000000000 0.000000000000 0.000000000000 0.000369375663 0.000208631682 0.000000000000 0.952659626521 0.000000000000 0.000000000000 0.000000000000 1.001369113225 1.051130000000 813.945248392523 253.245896274942 257.924569468563 98.797609305248 0.000000000000 0.000000000000 1.040631013361 0.000000000000 0.000000000000 0.000000000000 0.000000000000 0.000000000000 0.000000000000 0.000000000000 0.000000000000 0.000000000000 0.000000000000 0.000000000000 0.000000000000 0.000000000000 0.000000000000 0.000000000000 0.000000000000 0.000000000000 0.000000000000 0.000000000000 0.000000000000 0.000000000000 0.000000000000 0.000000000000 0.000000000000 0.000000000000 0.000000000000 0.000000000000 0.000000000000 0.000000000000 -11.521051578770 257.603082127336 0.000000000000 880.000000000000 103.662379135405 257.924569468563 253.245896274942 0.000201422343 0.457187246406 -0.000576066593 0.000000000000 0.000000000000 0.000000000000 880.000000000000 -0.463897177663 0.457485201048 -0.002637388236 0.457485201048 -0.002637388236 -0.463897177663 0.000000000000 
0.456805197732 -0.000621095491 0.000000000000 0.148097756864 0.000000000000 0.000000000000 0.001941636126 0.000000000000 0.000000000000 0.000000000000 0.000000000000 0.000000000000 0.001914218785 0.000315379684 0.000000000000 0.961774450257 0.000000000000 0.000000000000 0.000000000000 1.010949977898 1.051130000000 1140.960308525751 253.938867134867 258.000204555715 140.799646311049 0.000000000000 0.000000000000 1.040618510427 0.000000000000 0.000000000000 0.000000000000 0.000000000000 0.000000000000 0.000000000000 0.000000000000 0.000000000000 0.000000000000 0.000000000000 0.000000000000 0.000000000000 0.000000000000 0.000000000000 0.000000000000 0.000000000000 0.000000000000 0.000000000000 0.000000000000 0.000000000000 0.000000000000 0.000000000000 0.000000000000 0.000000000000 0.000000000000 0.000000000000 0.000000000000 0.000000000000 0.000000000000 -11.597961697428 257.676941726298 0.000000000000 880.000000000000 103.662379135405 258.000204555715 253.938867134867 0.001160454696 0.456805197732 -0.000621095491 0.000000000000 0.000000000000 0.000000000000 880.000000000000 -0.463512484550 0.457103152375 -0.002682417133 0.457103152375 -0.002682417133 -0.463512484550 0.000000000000 
0.456384937266 -0.000670568468 0.000000000000 0.128009090342 0.000000000000 0.000000000000 0.002457869243 0.000000000000 0.000000000000 0.000000000000 0.000000000000 0.000000000000 0.002436135659 0.000324565437 0.000000000000 0.960361394040 0.000000000000 0.000000000000 0.000000000000 1.009464672117 1.051130000000 2205.333946667313 253.832264649970 257.988569307103 272.095809767675 0.000000000000 0.000000000000 1.040617792195 0.000000000000 0.000000000000 0.000000000000 0.000000000000 0.000000000000 0.000000000000 0.000000000000 0.000000000000 0.000000000000 0.000000000000 0.000000000000 0.000000000000 0.000000000000 0.000000000000 0.000000000000 0.000000000000 0.000000000000 0.000000000000 0.000000000000 0.000000000000 0.000000000000 0.000000000000 0.000000000000 0.000000000000 0.000000000000 0.000000000000 0.000000000000 0.000000000000 0.000000000000 -12.338060194145 257.943190928655 0.000000000000 880.000000000000 103.662379135405 257.988569307103 253.832264649970 0.002197671030 0.456384937266 -0.000670568468 0.000000000000 0.000000000000 0.000000000000 880.000000000000 -0.463089322128 0.456682891908 -0.002731890111 0.456682891908 -0.002731890111 -0.463089322128 0.000000000000 
0.455922642115 -0.000724915311 0.000000000000 0.127049959057 0.000000000000 0.000000000000 0.001813051813 0.000000000000 0.000000000000 0.000000000000 0.000000000000 0.000000000000 0.001801077272 0.000208020295 0.000000000000 0.960293927818 0.000000000000 0.000000000000 0.000000000000 1.009393756348 1.051130000000 2213.209187173944 253.827169526856 257.988013194136 273.048441367619 0.000000000000 0.000000000000 1.040617792360 0.000000000000 0.000000000000 0.000000000000 0.000000000000 0.000000000000 0.000000000000 0.000000000000 0.000000000000 0.000000000000 0.000000000000 0.000000000000 0.000000000000 0.000000000000 0.000000000000 0.000000000000 0.000000000000 0.000000000000 0.000000000000 0.000000000000 0.000000000000 0.000000000000 0.000000000000 0.000000000000 0.000000000000 0.000000000000 0.000000000000 0.000000000000 0.000000000000 0.000000000000 -12.349786048097 257.942791898382 0.000000000000 880.000000000000 103.662379135405 257.988013194136 253.827169526856 0.002135209435 0.455922642115 -0.000724915311 0.000000000000 0.000000000000 0.000000000000 880.000000000000 -0.462623843465 0.456220596757 -0.002786236954 0.456220596757 -0.002786236954 -0.462623843465 0.000000000000 
0.455414107175 -0.000784609382 0.000000000000 0.125180619236 0.000000000000 0.000000000000 0.002111848246 0.000000000000 0.000000000000 0.000000000000 0.000000000000 0.000000000000 0.002097573244 0.000245131424 0.000000000000 0.960162436649 0.000000000000 0.000000000000 0.000000000000 1.009255542035 1.051130000000 2266.835235058711 253.817238807992 257.986929294610 279.627166778548 0.000000000000 0.000000000000 1.040617792321 0.000000000000 0.000000000000 0.000000000000 0.000000000000 0.000000000000 0.000000000000 0.000000000000 0.000000000000 0.000000000000 0.000000000000 0.000000000000 0.000000000000 0.000000000000 0.000000000000 0.000000000000 0.000000000000 0.000000000000 0.000000000000 0.000000000000 0.000000000000 0.000000000000 0.000000000000 0.000000000000 0.000000000000 0.000000000000 0.000000000000 0.000000000000 0.000000000000 0.000000000000 -12.339515633705 257.942777218442 0.000000000000 880.000000000000 103.662379135405 257.986929294610 253.817238807992 0.001962447500 0.455414107175 -0.000784609382 0.000000000000 0.000000000000 0.000000000000 880.000000000000 -0.462111816935 0.455712061817 -0.002845931024 0.455712061817 -0.002845931024 -0.462111816935 0.000000000000 
0.454854706269 -0.000850166543 0.000000000000 0.123388998281 0.000000000000 0.000000000000 0.002365557462 0.000000000000 0.000000000000 0.000000000000 0.000000000000 0.000000000000 0.002349546228 0.000274762824 0.000000000000 0.960036412300 0.000000000000 0.000000000000 0.000000000000 1.009123074060 1.051130000000 2307.348701518202 253.807719933091 257.985890346259 284.588245254533 0.000000000000 0.000000000000 1.040617792230 0.000000000000 0.000000000000 0.000000000000 0.000000000000 0.000000000000 0.000000000000 0.000000000000 0.000000000000 0.000000000000 0.000000000000 0.000000000000 0.000000000000 0.000000000000 0.000000000000 0.000000000000 0.000000000000 0.000000000000 0.000000000000 0.000000000000 0.000000000000 0.000000000000 0.000000000000 0.000000000000 0.000000000000 0.000000000000 0.000000000000 0.000000000000 0.000000000000 0.000000000000 -12.350155083664 257.942511187654 0.000000000000 880.000000000000 103.662379135405 257.985890346259 253.807719933091 0.002238702739 0.454854706269 -0.000850166543 0.000000000000 0.000000000000 0.000000000000 880.000000000000 -0.461548587751 0.455152660911 -0.002911488185 0.455152660911 -0.002911488185 -0.461548587751 0.000000000000 
0.454239347131 -0.000922124457 0.000000000000 0.121294675127 0.000000000000 0.000000000000 0.002511510829 0.000000000000 0.000000000000 0.000000000000 0.000000000000 0.000000000000 0.002494557362 0.000291324817 0.000000000000 0.959889095585 0.000000000000 0.000000000000 0.000000000000 1.008968225042 1.051130000000 2341.161377777220 253.796591709360 257.984675743711 288.715480110550 0.000000000000 0.000000000000 1.040617792203 0.000000000000 0.000000000000 0.000000000000 0.000000000000 0.000000000000 0.000000000000 0.000000000000 0.000000000000 0.000000000000 0.000000000000 0.000000000000 0.000000000000 0.000000000000 0.000000000000 0.000000000000 0.000000000000 0.000000000000 0.000000000000 0.000000000000 0.000000000000 0.000000000000 0.000000000000 0.000000000000 0.000000000000 0.000000000000 0.000000000000 0.000000000000 0.000000000000 0.000000000000 -12.193759814294 257.941923234728 0.000000000000 880.000000000000 103.662379135405 257.984675743711 253.796591709360 0.002438534128 0.454239347131 -0.000922124457 0.000000000000 0.000000000000 0.000000000000 880.000000000000 -0.460929035646 0.454537301774 -0.002983446099 0.454537301774 -0.002983446099 -0.460929035646 0.000000000000 
0.453562432024 -0.001001106432 0.000000000000 0.119058082218 0.000000000000 0.000000000000 0.002591002791 0.000000000000 0.000000000000 0.000000000000 0.000000000000 0.000000000000 0.002573581040 0.000299959973 0.000000000000 0.959731771478 0.000000000000 0.000000000000 0.000000000000 1.008802856954 1.051130000000 2366.866580534589 253.784706193292 257.983378485636 291.838823741418 0.000000000000 0.000000000000 1.040617792203 0.000000000000 0.000000000000 0.000000000000 0.000000000000 0.000000000000 0.000000000000 0.000000000000 0.000000000000 0.000000000000 0.000000000000 0.000000000000 0.000000000000 0.000000000000 0.000000000000 0.000000000000 0.000000000000 0.000000000000 0.000000000000 0.000000000000 0.000000000000 0.000000000000 0.000000000000 0.000000000000 0.000000000000 0.000000000000 0.000000000000 0.000000000000 0.000000000000 0.000000000000 -12.334221100303 257.941091542301 0.000000000000 880.000000000000 103.662379135405 257.983378485636 253.784706193292 0.002551256793 0.453562432024 -0.001001106432 0.000000000000 0.000000000000 0.000000000000 880.000000000000 -0.460247528336 0.453860386667 -0.003062428075 0.453860386667 -0.003062428075 -0.460247528336 0.000000000000 
0.452817802733 -0.001087792010 0.000000000000 0.116713358079 0.000000000000 0.000000000000 0.002642596848 0.000000000000 0.000000000000 0.000000000000 0.000000000000 0.000000000000 0.002624911545 0.000305216869 0.000000000000 0.959566841316 0.000000000000 0.000000000000 0.000000000000 1.008629493913 1.051130000000 2387.246736109882 253.772244563748 257.982018347006 294.302392319161 0.000000000000 0.000000000000 1.040617792208 0.000000000000 0.000000000000 0.000000000000 0.000000000000 0.000000000000 0.000000000000 0.000000000000 0.000000000000 0.000000000000 0.000000000000 0.000000000000 0.000000000000 0.000000000000 0.000000000000 0.000000000000 0.000000000000 0.000000000000 0.000000000000 0.000000000000 0.000000000000 0.000000000000 0.000000000000 0.000000000000 0.000000000000 0.000000000000 0.000000000000 0.000000000000 0.000000000000 0.000000000000 -12.490109112466 257.940094402448 0.000000000000 880.000000000000 103.662379135405 257.982018347006 253.772244563748 0.002616799795 0.452817802733 -0.001087792010 0.000000000000 0.000000000000 0.000000000000 880.000000000000 -0.459497870299 0.453115757375 -0.003149113653 0.453115757375 -0.003149113653 -0.459497870299 0.000000000000 
0.451998682102 -0.001182901742 0.000000000000 0.114259515452 0.000000000000 0.000000000000 0.002686983553 0.000000000000 0.000000000000 0.000000000000 0.000000000000 0.000000000000 0.002669094737 0.000309537918 0.000000000000 0.959394235655 0.000000000000 0.000000000000 0.000000000000 1.008448062924 1.051130000000 2404.934505786227 253.759201354277 257.980594731177 296.430939256403 0.000000000000 0.000000000000 1.040617792210 0.000000000000 0.000000000000 0.000000000000 0.000000000000 0.000000000000 0.000000000000 0.000000000000 0.000000000000 0.000000000000 0.000000000000 0.000000000000 0.000000000000 0.000000000000 0.000000000000 0.000000000000 0.000000000000 0.000000000000 0.000000000000 0.000000000000 0.000000000000 0.000000000000 0.000000000000 0.000000000000 0.000000000000 0.000000000000 0.000000000000 0.000000000000 0.000000000000 0.000000000000 -12.488341274010 257.938981597940 0.000000000000 880.000000000000 103.662379135405 257.980594731177 253.759201354277 0.002664790170 0.451998682102 -0.001182901742 0.000000000000 0.000000000000 0.000000000000 880.000000000000 -0.458673246465 0.452296636744 -0.003244223385 0.452296636744 -0.003244223385 -0.458673246465 0.000000000000 
0.451097615128 -0.001287226822 0.000000000000 0.111672757622 0.000000000000 0.000000000000 0.002733570663 0.000000000000 0.000000000000 0.000000000000 0.000000000000 0.000000000000 0.002715479176 0.000313976356 0.000000000000 0.959212280609 0.000000000000 0.000000000000 0.000000000000 1.008256804517 1.051130000000 2421.938145229161 253.745449824654 257.979093804945 298.471574687691 0.000000000000 0.000000000000 1.040617792209 0.000000000000 0.000000000000 0.000000000000 0.000000000000 0.000000000000 0.000000000000 0.000000000000 0.000000000000 0.000000000000 0.000000000000 0.000000000000 0.000000000000 0.000000000000 0.000000000000 0.000000000000 0.000000000000 0.000000000000 0.000000000000 0.000000000000 0.000000000000 0.000000000000 0.000000000000 0.000000000000 0.000000000000 0.000000000000 0.000000000000 0.000000000000 0.000000000000 0.000000000000 -12.338975211986 257.937775580687 0.000000000000 880.000000000000 103.662379135405 257.979093804945 253.745449824654 0.002710277068 0.451097615128 -0.001287226822 0.000000000000 0.000000000000 0.000000000000 880.000000000000 -0.457766160243 0.451395569770 -0.003348548465 0.451395569770 -0.003348548465 -0.457766160243 0.000000000000 
0.450106403344 -0.001401654843 0.000000000000 0.108929333312 0.000000000000 0.000000000000 0.002785262746 0.000000000000 0.000000000000 0.000000000000 0.000000000000 0.000000000000 0.002766950608 0.000318861423 0.000000000000 0.959019305492 0.000000000000 0.000000000000 0.000000000000 1.008053962582 1.051130000000 2439.530360835999 253.730863396297 257.977501752748 300.580595549168 0.000000000000 0.000000000000 1.040617792210 0.000000000000 0.000000000000 0.000000000000 0.000000000000 0.000000000000 0.000000000000 0.000000000000 0.000000000000 0.000000000000 0.000000000000 0.000000000000 0.000000000000 0.000000000000 0.000000000000 0.000000000000 0.000000000000 0.000000000000 0.000000000000 0.000000000000 0.000000000000 0.000000000000 0.000000000000 0.000000000000 0.000000000000 0.000000000000 0.000000000000 0.000000000000 0.000000000000 0.000000000000 -12.322006569983 257.936484449807 0.000000000000 880.000000000000 103.662379135405 257.977501752748 253.730863396297 0.002759416655 0.450106403344 -0.001401654843 0.000000000000 0.000000000000 0.000000000000 880.000000000000 -0.456768365387 0.450404357986 -0.003462976486 0.450404357986 -0.003462976486 -0.456768365387 0.000000000000 
0.449016017222 -0.001527064374 0.000000000000 0.106008664206 0.000000000000 0.000000000000 0.002839042074 0.000000000000 0.000000000000 0.000000000000 0.000000000000 0.000000000000 0.002820508448 0.000323869766 0.000000000000 0.958813862805 0.000000000000 0.000000000000 0.000000000000 1.007838015610 1.051130000000 2457.964544021382 253.715332272098 257.975806590656 302.788664342861 0.000000000000 0.000000000000 1.040617792214 0.000000000000 0.000000000000 0.000000000000 0.000000000000 0.000000000000 0.000000000000 0.000000000000 0.000000000000 0.000000000000 0.000000000000 0.000000000000 0.000000000000 0.000000000000 0.000000000000 0.000000000000 0.000000000000 0.000000000000 0.000000000000 0.000000000000 0.000000000000 0.000000000000 0.000000000000 0.000000000000 0.000000000000 0.000000000000 0.000000000000 0.000000000000 0.000000000000 0.000000000000 -12.332139533440 257.935100147310 0.000000000000 880.000000000000 103.662379135405 257.975806590656 253.715332272098 0.002812152352 0.449016017222 -0.001527064374 0.000000000000 0.000000000000 0.000000000000 880.000000000000 -0.455670791042 0.449313971865 -0.003588386017 0.449313971865 -0.003588386017 -0.455670791042 0.000000000000 
0.447816533780 -0.001664503289 0.000000000000 0.102891070286 0.000000000000 0.000000000000 0.002895549233 0.000000000000 0.000000000000 0.000000000000 0.000000000000 0.000000000000 0.002876793439 0.000329035594 0.000000000000 0.958594568235 0.000000000000 0.000000000000 0.000000000000 1.007607508509 1.051130000000 2477.313382392750 253.698751341641 257.973996846275 305.104150594054 0.000000000000 0.000000000000 1.040617792221 0.000000000000 0.000000000000 0.000000000000 0.000000000000 0.000000000000 0.000000000000 0.000000000000 0.000000000000 0.000000000000 0.000000000000 0.000000000000 0.000000000000 0.000000000000 0.000000000000 0.000000000000 0.000000000000 0.000000000000 0.000000000000 0.000000000000 0.000000000000 0.000000000000 0.000000000000 0.000000000000 0.000000000000 0.000000000000 0.000000000000 0.000000000000 0.000000000000 0.000000000000 -12.314552260783 257.933611831327 0.000000000000 880.000000000000 103.662379135405 257.973996846275 253.698751341641 0.002867295582 0.447816533780 -0.001664503289 0.000000000000 0.000000000000 0.000000000000 880.000000000000 -0.454463459280 0.448114488422 -0.003725824931 0.448114488422 -0.003725824931 -0.454463459280 0.000000000000 
0.446497035884 -0.001815107811 0.000000000000 0.099561491439 0.000000000000 0.000000000000 0.002957122965 0.000000000000 0.000000000000 0.000000000000 0.000000000000 0.000000000000 0.002938129575 0.000334619610 0.000000000000 0.958360362442 0.000000000000 0.000000000000 0.000000000000 1.007361327773 1.051130000000 2497.909809842289 253.681039973980 257.972063719048 307.567547592571 0.000000000000 0.000000000000 1.040617792233 0.000000000000 0.000000000000 0.000000000000 0.000000000000 0.000000000000 0.000000000000 0.000000000000 0.000000000000 0.000000000000 0.000000000000 0.000000000000 0.000000000000 0.000000000000 0.000000000000 0.000000000000 0.000000000000 0.000000000000 0.000000000000 0.000000000000 0.000000000000 0.000000000000 0.000000000000 0.000000000000 0.000000000000 0.000000000000 0.000000000000 0.000000000000 0.000000000000 0.000000000000 -12.476144564499 257.932015453066 0.000000000000 880.000000000000 103.662379135405 257.972063719048 253.681039973980 0.002926336014 0.446497035884 -0.001815107811 0.000000000000 0.000000000000 0.000000000000 880.000000000000 -0.453135394364 0.446794990526 -0.003876429453 0.446794990526 -0.003876429453 -0.453135394364 0.000000000000 
0.445045503841 -0.001980031730 0.000000000000 0.096008942983 0.000000000000 0.000000000000 0.003021151176 0.000000000000 0.000000000000 0.000000000000 0.000000000000 0.000000000000 0.003001924742 0.000340296327 0.000000000000 0.958110472750 0.000000000000 0.000000000000 0.000000000000 1.007098661222 1.051130000000 2519.674129729589 253.662139129164 257.970000764994 310.168584473729 0.000000000000 0.000000000000 1.040617792249 0.000000000000 0.000000000000 0.000000000000 0.000000000000 0.000000000000 0.000000000000 0.000000000000 0.000000000000 0.000000000000 0.000000000000 0.000000000000 0.000000000000 0.000000000000 0.000000000000 0.000000000000 0.000000000000 0.000000000000 0.000000000000 0.000000000000 0.000000000000 0.000000000000 0.000000000000 0.000000000000 0.000000000000 0.000000000000 0.000000000000 0.000000000000 0.000000000000 0.000000000000 -12.473074452341 257.930302510135 0.000000000000 880.000000000000 103.662379135405 257.970000764994 253.662139129164 0.002989136968 0.445045503841 -0.001980031730 0.000000000000 0.000000000000 0.000000000000 880.000000000000 -0.451674522991 0.445343458484 -0.004041353372 0.445343458484 -0.004041353372 -0.451674522991 0.000000000000 
0.443448718017 -0.002160560700 0.000000000000 0.092219838153 0.000000000000 0.000000000000 0.003086302930 0.000000000000 0.000000000000 0.000000000000 0.000000000000 0.000000000000 0.003066855370 0.000345923599 0.000000000000 0.957843943455 0.000000000000 0.000000000000 0.000000000000 1.006818504283 1.051130000000 2542.344929116129 253.641975833251 257.967800019289 312.874553038499 0.000000000000 0.000000000000 1.040617792268 0.000000000000 0.000000000000 0.000000000000 0.000000000000 0.000000000000 0.000000000000 0.000000000000 0.000000000000 0.000000000000 0.000000000000 0.000000000000 0.000000000000 0.000000000000 0.000000000000 0.000000000000 0.000000000000 0.000000000000 0.000000000000 0.000000000000 0.000000000000 0.000000000000 0.000000000000 0.000000000000 0.000000000000 0.000000000000 0.000000000000 0.000000000000 0.000000000000 0.000000000000 -12.315154484726 257.928460229878 0.000000000000 880.000000000000 103.662379135405 257.967800019289 253.641975833251 0.003053726934 0.443448718017 -0.002160560700 0.000000000000 0.000000000000 0.000000000000 880.000000000000 -0.450067564473 0.443746672659 -0.004221882342 0.443746672659 -0.004221882342 -0.450067564473 0.000000000000 
0.441692139476 -0.002358130591 0.000000000000 0.088183623370 0.000000000000 0.000000000000 0.003160427363 0.000000000000 0.000000000000 0.000000000000 0.000000000000 0.000000000000 0.003140741020 0.000352201144 0.000000000000 0.957560032206 0.000000000000 0.000000000000 0.000000000000 1.006520076653 1.051130000000 2566.279902360769 253.620493159667 257.965455268618 315.728986654421 0.000000000000 0.000000000000 1.040617792289 0.000000000000 0.000000000000 0.000000000000 0.000000000000 0.000000000000 0.000000000000 0.000000000000 0.000000000000 0.000000000000 0.000000000000 0.000000000000 0.000000000000 0.000000000000 0.000000000000 0.000000000000 0.000000000000 0.000000000000 0.000000000000 0.000000000000 0.000000000000 0.000000000000 0.000000000000 0.000000000000 0.000000000000 0.000000000000 0.000000000000 0.000000000000 0.000000000000 0.000000000000 -12.140060512986 257.926487130368 0.000000000000 880.000000000000 103.662379135405 257.965455268618 253.620493159667 0.003123364980 0.441692139476 -0.002358130591 0.000000000000 0.000000000000 0.000000000000 880.000000000000 -0.448299910086 0.441990094118 -0.004419452233 0.441990094118 -0.004419452233 -0.448299910086 0.000000000000 
0.439759767869 -0.002574252585 0.000000000000 0.083902851335 0.000000000000 0.000000000000 0.003240774915 0.000000000000 0.000000000000 0.000000000000 0.000000000000 0.000000000000 0.003220846746 0.000358841140 0.000000000000 0.957258918564 0.000000000000 0.000000000000 0.000000000000 1.006203567071 1.051130000000 2591.823567353358 253.597703865713 257.962967905391 318.774044378176 0.000000000000 0.000000000000 1.040617792315 0.000000000000 0.000000000000 0.000000000000 0.000000000000 0.000000000000 0.000000000000 0.000000000000 0.000000000000 0.000000000000 0.000000000000 0.000000000000 0.000000000000 0.000000000000 0.000000000000 0.000000000000 0.000000000000 0.000000000000 0.000000000000 0.000000000000 0.000000000000 0.000000000000 0.000000000000 0.000000000000 0.000000000000 0.000000000000 0.000000000000 0.000000000000 0.000000000000 0.000000000000 -12.290652041254 257.924388875134 0.000000000000 880.000000000000 103.662379135405 257.962967905391 253.597703865713 0.003200600931 0.439759767869 -0.002574252585 0.000000000000 0.000000000000 0.000000000000 880.000000000000 -0.446355490187 0.440057722511 -0.004635574227 0.440057722511 -0.004635574227 -0.446355490187 0.000000000000 
0.437633954537 -0.002810150629 0.000000000000 0.079374193348 0.000000000000 0.000000000000 0.003315523972 0.000000000000 0.000000000000 0.000000000000 0.000000000000 0.000000000000 0.003295416654 0.000364590738 0.000000000000 0.956940368385 0.000000000000 0.000000000000 0.000000000000 1.005868729421 1.051130000000 2618.069964282599 253.573589335835 257.960335897793 321.897932189988 0.000000000000 0.000000000000 1.040617792346 0.000000000000 0.000000000000 0.000000000000 0.000000000000 0.000000000000 0.000000000000 0.000000000000 0.000000000000 0.000000000000 0.000000000000 0.000000000000 0.000000000000 0.000000000000 0.000000000000 0.000000000000 0.000000000000 0.000000000000 0.000000000000 0.000000000000 0.000000000000 0.000000000000 0.000000000000 0.000000000000 0.000000000000 0.000000000000 0.000000000000 0.000000000000 0.000000000000 0.000000000000 -12.299028335383 257.922149210440 0.000000000000 880.000000000000 103.662379135405 257.960335897793 253.573589335835 0.003278149201 0.437633954537 -0.002810150629 0.000000000000 0.000000000000 0.000000000000 880.000000000000 -0.444216628291 0.437931909179 -0.004871472271 0.437931909179 -0.004871472271 -0.444216628291 0.000000000000 
0.435295367925 -0.003067901807 0.000000000000 0.074580530491 0.000000000000 0.000000000000 0.003393709482 0.000000000000 0.000000000000 0.000000000000 0.000000000000 0.000000000000 0.003373431411 0.000370435844 0.000000000000 0.956603177507 0.000000000000 0.000000000000 0.000000000000 1.005514297973 1.051130000000 2644.958454737266 253.548057435254 257.957549189668 325.092521060963 0.000000000000 0.000000000000 1.040617792379 0.000000000000 0.000000000000 0.000000000000 0.000000000000 0.000000000000 0.000000000000 0.000000000000 0.000000000000 0.000000000000 0.000000000000 0.000000000000 0.000000000000 0.000000000000 0.000000000000 0.000000000000 0.000000000000 0.000000000000 0.000000000000 0.000000000000 0.000000000000 0.000000000000 0.000000000000 0.000000000000 0.000000000000 0.000000000000 0.000000000000 0.000000000000 0.000000000000 0.000000000000 -12.278603915242 257.919756623503 0.000000000000 880.000000000000 103.662379135405 257.957549189668 253.548057435254 0.003354616448 0.435295367925 -0.003067901807 0.000000000000 0.000000000000 0.000000000000 880.000000000000 -0.441863880320 0.435593322567 -0.005129223450 0.435593322567 -0.005129223450 -0.441863880320 0.000000000000 
0.432722694130 -0.003349345776 0.000000000000 0.069512673404 0.000000000000 0.000000000000 0.003481248666 0.000000000000 0.000000000000 0.000000000000 0.000000000000 0.000000000000 0.003460768656 0.000377054562 0.000000000000 0.956246699542 0.000000000000 0.000000000000 0.000000000000 1.005139593290 1.051130000000 2673.112602486314 253.521058135606 257.954602320615 328.433971322469 0.000000000000 0.000000000000 1.040617792413 0.000000000000 0.000000000000 0.000000000000 0.000000000000 0.000000000000 0.000000000000 0.000000000000 0.000000000000 0.000000000000 0.000000000000 0.000000000000 0.000000000000 0.000000000000 0.000000000000 0.000000000000 0.000000000000 0.000000000000 0.000000000000 0.000000000000 0.000000000000 0.000000000000 0.000000000000 0.000000000000 0.000000000000 0.000000000000 0.000000000000 0.000000000000 0.000000000000 0.000000000000 -12.286402427828 257.917214137544 0.000000000000 880.000000000000 103.662379135405 257.954602320615 253.521058135606 0.003437478763 0.432722694130 -0.003349345776 0.000000000000 0.000000000000 0.000000000000 880.000000000000 -0.439275857685 0.433020648773 -0.005410667418 0.433020648773 -0.005410667418 -0.439275857685 0.000000000000 