#+++++++++++++++++++++++++++++++++++++++++++++++++++++++++++++++++++++++++++++++++++++++++++++++++++++++++++++++++++++++++++++++++
#
#   IPW-3 Final Ice Shape DATA SUBMITTAL FORM for Test Case NACA0012_AE3933, May 18th 2026
#
#       NOMENCLATURE:
#             X_ICED [m]:  X-coordinate of the iced surface
#             Y_ICED [m]:  Y-coordinate of the iced surface
#             Z_ICED [m]:  Z-coordinate of the iced surface
#
#                1mm:  Roughness height used for the case, in mm.
#                       In the zone name, use the format KS_1mm.
#                       For example, if k_s = 1.5 mm, use KS_1p5mm. 
#                       For Variable roughness, use KS_VAR
#
#    FLOW CONDITIONS:
#                                   AOA: 4.0 deg
#                           Mach Number: 0.3127 [-]
#       Mean aerodynamic chord (M.A.C.): 0.5334 [m]
#                       Reynolds Number: 3.8947 million (based on MAC)
#                       Freestream Temp: 265.8 [K]
#                        Reference area: 0.97548 [m2]
#               Moment Reference Center: 0.13335, 0, 0 [m] (X, Y, Z)
#
#    ICING CONDITIONS:
#                           Icing Time: 420 [s]
#                                  LWC: 0.55 [g/m3]
#                                  MVD: 20 [μm]
#
#              NOTES: 1. Please use at least 5 decimal places in the numerical values
#                     2. If data are NOT provided, please fill data fields with a numerical value of "-999" 
#
#++++++++++++++++++++++++++++++++++++++++++++++++++++++++++++++++++++++++++++++++++++++++++++++++++++++++++++++++++++

AUXDATA NUM_LAYERS  = "5"
                                              
VARIABLES = "X_ICED" "Y_ICED" "Z_ICED"

ZONE T="SLICE_Y_0p9144_BINS01_KS_1mm_SINGLE_LAYER"
0.53339962 0.91438830 0.00068246
0.53003744 0.91438830 0.00115208
0.53003467 0.91438830 0.00115247
0.52667240 0.91438830 0.00161908
0.52666963 0.91438830 0.00161946
0.52330841 0.91438830 0.00208209
0.52330564 0.91438830 0.00208246
0.51994441 0.91438830 0.00254109
0.51994163 0.91438830 0.00254146
0.51658043 0.91438830 0.00299709
0.51657766 0.91438830 0.00299746
0.51321744 0.91438830 0.00345010
0.51321467 0.91438830 0.00345047
0.50985540 0.91438830 0.00389810
0.50985263 0.91438830 0.00389846
0.50649445 0.91438830 0.00434410
0.50649168 0.91438830 0.00434447
0.50313439 0.91438830 0.00478510
0.50313162 0.91438830 0.00478546
0.49977537 0.91438830 0.00522410
0.49977263 0.91438830 0.00522446
0.49641839 0.91438830 0.00565911
0.49641565 0.91438830 0.00565946
0.49306238 0.91438830 0.00609011
0.49305963 0.91438830 0.00609046
0.48970738 0.91438830 0.00651811
0.48970464 0.91438830 0.00651846
0.48635439 0.91438830 0.00694312
0.48635164 0.91438830 0.00694346
0.48300438 0.91438830 0.00736512
0.48300164 0.91438830 0.00736546
0.47965537 0.91438830 0.00778312
0.47965263 0.91438830 0.00778346
0.47630836 0.91438830 0.00819812
0.47630562 0.91438830 0.00819846
0.47296438 0.91438830 0.00860913
0.47296164 0.91438830 0.00860946
0.46962237 0.91438830 0.00901713
0.46961963 0.91438830 0.00901746
0.46628240 0.91438830 0.00942213
0.46627966 0.91438830 0.00942246
0.46294532 0.91438830 0.00982413
0.46294261 0.91438830 0.00982446
0.45961135 0.91438830 0.01022314
0.45960864 0.91438830 0.01022346
0.45628035 0.91438830 0.01061814
0.45627764 0.91438830 0.01061846
0.45295234 0.91438830 0.01101014
0.45294963 0.91438830 0.01101046
0.44962833 0.91438830 0.01139915
0.44962562 0.91438830 0.01139946
0.44630634 0.91438830 0.01178415
0.44630363 0.91438830 0.01178446
0.44298837 0.91438830 0.01216715
0.44298565 0.91438830 0.01216746
0.43967435 0.91438830 0.01254616
0.43967164 0.91438830 0.01254646
0.43636335 0.91438830 0.01292215
0.43636064 0.91438830 0.01292246
0.43305635 0.91438830 0.01329516
0.43305364 0.91438830 0.01329546
0.42975336 0.91438830 0.01366516
0.42975065 0.91438830 0.01366546
0.42645531 0.91438830 0.01403116
0.42645263 0.91438830 0.01403146
0.42316029 0.91438830 0.01439516
0.42315761 0.91438830 0.01439546
0.41987031 0.91438830 0.01475517
0.41986763 0.91438830 0.01475546
0.41658532 0.91438830 0.01511217
0.41658264 0.91438830 0.01511246
0.41330433 0.91438830 0.01546618
0.41330165 0.91438830 0.01546646
0.41002833 0.91438830 0.01581618
0.41002566 0.91438830 0.01581646
0.40675730 0.91438830 0.01616318
0.40675463 0.91438830 0.01616346
0.40349033 0.91438830 0.01650818
0.40348765 0.91438830 0.01650846
0.40022934 0.91438830 0.01684919
0.40022666 0.91438830 0.01684946
0.39697427 0.91438830 0.01718619
0.39697162 0.91438830 0.01718646
0.39372329 0.91438830 0.01752119
0.39372064 0.91438830 0.01752146
0.39047928 0.91438830 0.01785219
0.39047663 0.91438830 0.01785246
0.38724029 0.91438830 0.01818020
0.38723764 0.91438830 0.01818046
0.38400730 0.91438830 0.01850520
0.38400466 0.91438830 0.01850547
0.38077929 0.91438830 0.01882620
0.38077664 0.91438830 0.01882646
0.37755826 0.91438830 0.01914520
0.37755564 0.91438830 0.01914546
0.37434327 0.91438830 0.01946021
0.37434065 0.91438830 0.01946046
0.37113525 0.91438830 0.01977121
0.37113263 0.91438830 0.01977146
0.36793225 0.91438830 0.02008021
0.36792963 0.91438830 0.02008046
0.36473727 0.91438830 0.02038422
0.36473465 0.91438830 0.02038446
0.36154825 0.91438830 0.02068622
0.36154564 0.91438830 0.02068646
0.35836621 0.91438830 0.02098422
0.35836362 0.91438830 0.02098446
0.35519122 0.91438830 0.02127922
0.35518863 0.91438830 0.02127946
0.35202323 0.91438830 0.02157023
0.35202065 0.91438830 0.02157046
0.34886220 0.91438830 0.02185823
0.34885962 0.91438830 0.02185846
0.34570921 0.91438830 0.02214323
0.34570663 0.91438830 0.02214346
0.34256319 0.91438830 0.02242423
0.34256064 0.91438830 0.02242446
0.33942418 0.91438830 0.02270124
0.33942162 0.91438830 0.02270146
0.33629420 0.91438830 0.02297624
0.33629165 0.91438830 0.02297646
0.33317121 0.91438830 0.02324625
0.33316866 0.91438830 0.02324647
0.33005616 0.91438830 0.02351325
0.33005361 0.91438830 0.02351346
0.32694917 0.91438830 0.02377625
0.32694664 0.91438830 0.02377646
0.32385116 0.91438830 0.02403625
0.32384864 0.91438830 0.02403646
0.32076114 0.91438830 0.02429225
0.32075862 0.91438830 0.02429246
0.31767914 0.91438830 0.02454426
0.31767662 0.91438830 0.02454446
0.31460617 0.91438830 0.02479326
0.31460364 0.91438830 0.02479346
0.31154112 0.91438830 0.02503826
0.31153862 0.91438830 0.02503846
0.30848612 0.91438830 0.02527927
0.30848362 0.91438830 0.02527946
0.30543912 0.91438830 0.02551727
0.30543663 0.91438830 0.02551746
0.30240213 0.91438830 0.02575027
0.30239964 0.91438830 0.02575046
0.29937311 0.91438830 0.02598028
0.29937065 0.91438830 0.02598047
0.29635409 0.91438830 0.02620628
0.29635162 0.91438830 0.02620646
0.29334511 0.91438830 0.02642828
0.29334264 0.91438830 0.02642846
0.29034409 0.91438830 0.02664629
0.29034162 0.91438830 0.02664646
0.28735406 0.91438830 0.02686129
0.28735163 0.91438830 0.02686146
0.28437305 0.91438830 0.02707129
0.28437061 0.91438830 0.02707146
0.28140307 0.91438830 0.02727729
0.28140064 0.91438830 0.02727746
0.27844205 0.91438830 0.02748030
0.27843962 0.91438830 0.02748046
0.27549202 0.91438830 0.02767830
0.27548962 0.91438830 0.02767846
0.27255103 0.91438830 0.02787230
0.27254862 0.91438830 0.02787246
0.26962103 0.91438830 0.02806231
0.26961863 0.91438830 0.02806247
0.26670202 0.91438830 0.02824831
0.26669965 0.91438830 0.02824846
0.26379299 0.91438830 0.02843031
0.26379062 0.91438830 0.02843046
0.26089500 0.91438830 0.02860832
0.26089263 0.91438830 0.02860846
0.25800802 0.91438830 0.02878132
0.25800565 0.91438830 0.02878146
0.25513195 0.91438830 0.02895032
0.25512961 0.91438830 0.02895046
0.25226699 0.91438830 0.02911533
0.25226465 0.91438830 0.02911546
0.24941296 0.91438830 0.02927633
0.24941062 0.91438830 0.02927646
0.24656995 0.91438830 0.02943234
0.24656763 0.91438830 0.02943246
0.24373894 0.91438830 0.02958434
0.24373663 0.91438830 0.02958446
0.24091894 0.91438830 0.02973234
0.24091663 0.91438830 0.02973246
0.23811093 0.91438830 0.02987535
0.23810863 0.91438830 0.02987546
0.23531491 0.91438830 0.03001435
0.23531263 0.91438830 0.03001446
0.23252992 0.91438830 0.03014835
0.23252764 0.91438830 0.03014846
0.22975790 0.91438830 0.03027836
0.22975564 0.91438830 0.03027846
0.22699691 0.91438830 0.03040436
0.22699464 0.91438830 0.03040446
0.22424887 0.91438830 0.03052537
0.22424662 0.91438830 0.03052546
0.22151288 0.91438830 0.03064137
0.22151065 0.91438830 0.03064146
0.21878886 0.91438830 0.03075337
0.21878663 0.91438830 0.03075346
0.21607785 0.91438830 0.03086038
0.21607563 0.91438830 0.03086046
0.21337984 0.91438830 0.03096338
0.21337764 0.91438830 0.03096346
0.21069383 0.91438830 0.03106138
0.21069163 0.91438830 0.03106146
0.20802183 0.91438830 0.03115439
0.20801964 0.91438830 0.03115447
0.20536180 0.91438830 0.03124339
0.20535963 0.91438830 0.03124346
0.20271479 0.91438830 0.03132739
0.20271263 0.91438830 0.03132746
0.20008078 0.91438830 0.03140640
0.20007862 0.91438830 0.03140647
0.19746077 0.91438830 0.03148040
0.19745863 0.91438830 0.03148046
0.19485375 0.91438830 0.03155040
0.19485163 0.91438830 0.03155046
0.19226075 0.91438830 0.03161541
0.19225863 0.91438830 0.03161547
0.18968075 0.91438830 0.03167641
0.18967864 0.91438830 0.03167646
0.18711374 0.91438830 0.03173142
0.18711164 0.91438830 0.03173146
0.18456172 0.91438830 0.03178242
0.18455964 0.91438830 0.03178246
0.18202272 0.91438830 0.03182842
0.18202064 0.91438830 0.03182846
0.17949871 0.91438830 0.03186943
0.17949665 0.91438830 0.03186946
0.17698768 0.91438830 0.03190543
0.17698564 0.91438830 0.03190546
0.17449167 0.91438830 0.03193744
0.17448963 0.91438830 0.03193746
0.17200966 0.91438830 0.03196344
0.17200763 0.91438830 0.03196346
0.16954165 0.91438830 0.03198545
0.16953963 0.91438830 0.03198546
0.16708864 0.91438830 0.03200245
0.16708664 0.91438830 0.03200246
0.16464962 0.91438830 0.03201445
0.16464764 0.91438830 0.03201446
0.16222562 0.91438830 0.03202146
0.16222363 0.91438830 0.03202146
0.15981661 0.91438830 0.03202346
0.15981463 0.91438830 0.03202346
0.15742259 0.91438830 0.03202146
0.15742063 0.91438830 0.03202146
0.15504258 0.91438830 0.03201347
0.15504064 0.91438830 0.03201346
0.15267856 0.91438830 0.03200047
0.15267663 0.91438830 0.03200046
0.15032956 0.91438830 0.03198348
0.15032764 0.91438830 0.03198346
0.14799554 0.91438830 0.03196148
0.14799363 0.91438830 0.03196146
0.14567754 0.91438830 0.03193448
0.14567564 0.91438830 0.03193446
0.14337352 0.91438830 0.03190249
0.14337164 0.91438830 0.03190246
0.14108650 0.91438830 0.03186549
0.14108463 0.91438830 0.03186546
0.13881449 0.91438830 0.03182350
0.13881264 0.91438830 0.03182346
0.13655849 0.91438830 0.03177651
0.13655664 0.91438830 0.03177647
0.13431747 0.91438830 0.03172451
0.13431564 0.91438830 0.03172446
0.13209245 0.91438830 0.03166851
0.13209063 0.91438830 0.03166847
0.12988445 0.91438830 0.03160751
0.12988265 0.91438830 0.03160746
0.12769142 0.91438830 0.03154052
0.12768963 0.91438830 0.03154046
0.12551541 0.91438830 0.03146952
0.12551364 0.91438830 0.03146946
0.12335539 0.91438830 0.03139353
0.12335364 0.91438830 0.03139346
0.12121138 0.91438830 0.03131353
0.12120963 0.91438830 0.03131346
0.11908337 0.91438830 0.03122753
0.11908163 0.91438830 0.03122746
0.11697236 0.91438830 0.03113754
0.11697063 0.91438830 0.03113746
0.11487835 0.91438830 0.03104254
0.11487664 0.91438830 0.03104246
0.11280034 0.91438830 0.03094255
0.11279864 0.91438830 0.03094246
0.11073931 0.91438830 0.03083755
0.11073763 0.91438830 0.03083746
0.10869530 0.91438830 0.03072755
0.10869364 0.91438830 0.03072746
0.10666730 0.91438830 0.03061356
0.10666564 0.91438830 0.03061346
0.10465728 0.91438830 0.03049456
0.10465564 0.91438830 0.03049446
0.10266427 0.91438830 0.03037156
0.10266264 0.91438830 0.03037146
0.10068824 0.91438830 0.03024357
0.10068663 0.91438830 0.03024346
0.09872924 0.91438830 0.03011057
0.09872764 0.91438830 0.03011046
0.09678721 0.91438830 0.02997257
0.09678563 0.91438830 0.02997246
0.09486321 0.91438830 0.02983058
0.09486163 0.91438830 0.02983046
0.09295619 0.91438830 0.02968358
0.09295463 0.91438830 0.02968346
0.09106718 0.91438830 0.02953259
0.09106564 0.91438830 0.02953247
0.08919517 0.91438830 0.02937659
0.08919364 0.91438830 0.02937646
0.08734115 0.91438830 0.02921660
0.08733963 0.91438830 0.02921647
0.08550514 0.91438830 0.02905160
0.08550364 0.91438830 0.02905146
0.08368712 0.91438830 0.02888260
0.08368563 0.91438830 0.02888246
0.08188610 0.91438830 0.02870960
0.08188463 0.91438830 0.02870946
0.08010409 0.91438830 0.02853161
0.08010263 0.91438830 0.02853146
0.07833907 0.91438830 0.02834861
0.07833763 0.91438830 0.02834847
0.07659305 0.91438830 0.02816161
0.07659163 0.91438830 0.02816146
0.07486504 0.91438830 0.02797062
0.07486364 0.91438830 0.02797046
0.07315504 0.91438830 0.02777562
0.07315363 0.91438830 0.02777547
0.07146301 0.91438830 0.02757663
0.07146163 0.91438830 0.02757646
0.06979000 0.91438830 0.02737263
0.06978863 0.91438830 0.02737246
0.06813499 0.91438830 0.02716463
0.06813364 0.91438830 0.02716446
0.06649897 0.91438830 0.02695264
0.06649763 0.91438830 0.02695246
0.06488096 0.91438830 0.02673664
0.06487963 0.91438830 0.02673646
0.06328194 0.91438830 0.02651664
0.06328064 0.91438830 0.02651646
0.06170193 0.91438830 0.02629265
0.06170063 0.91438830 0.02629246
0.06013991 0.91438830 0.02606465
0.06013863 0.91438830 0.02606446
0.05859689 0.91438830 0.02583265
0.05859563 0.91438830 0.02583246
0.05707288 0.91438830 0.02559666
0.05707163 0.91438830 0.02559646
0.05556886 0.91438830 0.02535666
0.05556763 0.91438830 0.02535646
0.05408285 0.91438830 0.02511266
0.05408163 0.91438830 0.02511246
0.05261584 0.91438830 0.02486567
0.05261464 0.91438830 0.02486546
0.05116782 0.91438830 0.02461367
0.05116663 0.91438830 0.02461346
0.04973980 0.91438830 0.02435867
0.04973863 0.91438830 0.02435846
0.04832979 0.91438830 0.02410067
0.04832863 0.91438830 0.02410046
0.04694077 0.91438830 0.02383868
0.04693963 0.91438830 0.02383846
0.04556975 0.91438830 0.02357268
0.04556863 0.91438830 0.02357246
0.04421874 0.91438830 0.02330268
0.04421763 0.91438830 0.02330246
0.04288672 0.91438830 0.02302969
0.04288563 0.91438830 0.02302946
0.04157471 0.91438830 0.02275369
0.04157364 0.91438830 0.02275346
0.04028169 0.91438830 0.02247369
0.04028064 0.91438830 0.02247346
0.03900867 0.91438830 0.02219070
0.03900763 0.91438830 0.02219046
0.03775566 0.91438830 0.02190370
0.03775464 0.91438830 0.02190346
0.03652264 0.91438830 0.02161370
0.03652164 0.91438830 0.02161346
0.03530862 0.91438830 0.02132070
0.03530763 0.91438830 0.02132046
0.03411461 0.91438830 0.02102471
0.03411364 0.91438830 0.02102446
0.03294059 0.91438830 0.02072471
0.03293964 0.91438830 0.02072446
0.03178558 0.91438830 0.02042271
0.03178463 0.91438830 0.02042246
0.03065156 0.91438830 0.02011672
0.03065064 0.91438830 0.02011647
0.02953754 0.91438830 0.01980772
0.02953663 0.91438830 0.01980747
0.02844352 0.91438830 0.01949575
0.02844262 0.91438830 0.01949550
0.02736947 0.91438830 0.01918087
0.02736859 0.91438830 0.01918061
0.02631528 0.91438830 0.01886442
0.02631442 0.91438830 0.01886416
0.02528054 0.91438830 0.01854570
0.02527970 0.91438830 0.01854544
0.02426484 0.91438830 0.01822991
0.02426401 0.91438830 0.01822965
0.02326316 0.91438830 0.01792662
0.02326234 0.91438830 0.01792637
0.02227643 0.91438830 0.01763654
0.02227562 0.91438830 0.01763630
0.02131014 0.91438830 0.01734289
0.02130935 0.91438830 0.01734265
0.02035867 0.91438830 0.01705611
0.02035789 0.91438830 0.01705588
0.01938307 0.91438830 0.01688544
0.01938227 0.91438830 0.01688530
0.01823932 0.91438830 0.01718749
0.01823839 0.91438830 0.01718774
0.01654696 0.91438830 0.01886751
0.01654558 0.91438830 0.01886888
0.01379480 0.91438830 0.02305173
0.01379255 0.91438830 0.02305515
0.01068319 0.91438830 0.02783280
0.01068065 0.91438830 0.02783670
0.00880240 0.91438830 0.02951833
0.00880086 0.91438830 0.02951971
0.00780421 0.91438830 0.02914862
0.00780339 0.91438830 0.02914831
0.00691174 0.91438830 0.02856274
0.00691101 0.91438830 0.02856226
0.00616456 0.91438830 0.02773712
0.00616395 0.91438830 0.02773645
0.00555343 0.91438830 0.02665528
0.00555293 0.91438830 0.02665440
0.00491297 0.91438830 0.02569332
0.00491244 0.91438830 0.02569254
0.00412908 0.91438830 0.02508093
0.00412844 0.91438830 0.02508043
0.00328958 0.91438830 0.02455745
0.00328889 0.91438830 0.02455702
0.00253085 0.91438830 0.02393021
0.00253023 0.91438830 0.02392970
0.00194412 0.91438830 0.02304953
0.00194364 0.91438830 0.02304881
0.00153665 0.91438830 0.02190687
0.00153632 0.91438830 0.02190594
0.00108915 0.91438830 0.02089684
0.00108878 0.91438830 0.02089602
0.00042759 0.91438830 0.02024115
0.00042705 0.91438830 0.02024062
-0.00030775 0.91438830 0.01971162
-0.00030835 0.91438830 0.01971119
-0.00102693 0.91438830 0.01916650
-0.00102752 0.91438830 0.01916606
-0.00170635 0.91438830 0.01857538
-0.00170690 0.91438830 0.01857490
-0.00227579 0.91438830 0.01786887
-0.00227626 0.91438830 0.01786829
-0.00261001 0.91438830 0.01689692
-0.00261028 0.91438830 0.01689613
-0.00268271 0.91438830 0.01566999
-0.00268277 0.91438830 0.01566899
-0.00281800 0.91438830 0.01459339
-0.00281811 0.91438830 0.01459251
-0.00326243 0.91438830 0.01387114
-0.00326280 0.91438830 0.01387055
-0.00382816 0.91438830 0.01325693
-0.00382862 0.91438830 0.01325643
-0.00437366 0.91438830 0.01263296
-0.00437411 0.91438830 0.01263245
-0.00489106 0.91438830 0.01198123
-0.00489148 0.91438830 0.01198070
-0.00534714 0.91438830 0.01127943
-0.00534751 0.91438830 0.01127886
-0.00563405 0.91438830 0.01047080
-0.00563429 0.91438830 0.01047014
-0.00554433 0.91438830 0.00943331
-0.00554426 0.91438830 0.00943246
-0.00504418 0.91438830 0.00821289
-0.00504377 0.91438830 0.00821190
-0.00467110 0.91438830 0.00715566
-0.00467080 0.91438830 0.00715480
-0.00478529 0.91438830 0.00639448
-0.00478538 0.91438830 0.00639386
-0.00507103 0.91438830 0.00572026
-0.00507126 0.91438830 0.00571971
-0.00533206 0.91438830 0.00504364
-0.00533228 0.91438830 0.00504309
-0.00556186 0.91438830 0.00435474
-0.00556204 0.91438830 0.00435418
-0.00576055 0.91438830 0.00364635
-0.00576071 0.91438830 0.00364577
-0.00592205 0.91438830 0.00292678
-0.00592218 0.91438830 0.00292619
-0.00603592 0.91438830 0.00221016
-0.00603601 0.91438830 0.00220957
-0.00607500 0.91438830 0.00147302
-0.00607503 0.91438830 0.00147242
-0.00593627 0.91438830 0.00073017
-0.00593615 0.91438830 0.00072956
-0.00542352 0.91438830 0.00001105
-0.00542310 0.91438830 0.00001046
-0.00453863 0.91438830 -0.00063848
-0.00453791 0.91438830 -0.00063901
-0.00381092 0.91438830 -0.00122221
-0.00381032 0.91438830 -0.00122269
-0.00354425 0.91438830 -0.00180813
-0.00354403 0.91438830 -0.00180860
-0.00343159 0.91438830 -0.00240077
-0.00343150 0.91438830 -0.00240126
-0.00329564 0.91438830 -0.00299580
-0.00329553 0.91438830 -0.00299629
-0.00312973 0.91438830 -0.00358396
-0.00312959 0.91438830 -0.00358444
-0.00293568 0.91438830 -0.00415929
-0.00293552 0.91438830 -0.00415976
-0.00270864 0.91438830 -0.00472432
-0.00270845 0.91438830 -0.00472478
-0.00243298 0.91438830 -0.00527438
-0.00243276 0.91438830 -0.00527483
-0.00208326 0.91438830 -0.00578463
-0.00208297 0.91438830 -0.00578504
-0.00166246 0.91438830 -0.00624658
-0.00166212 0.91438830 -0.00624696
-0.00124659 0.91438830 -0.00670481
-0.00124625 0.91438830 -0.00670518
-0.00088307 0.91438830 -0.00719388
-0.00088277 0.91438830 -0.00719427
-0.00052731 0.91438830 -0.00769033
-0.00052702 0.91438830 -0.00769073
-0.00015023 0.91438830 -0.00818206
-0.00014992 0.91438830 -0.00818246
0.00024721 0.91438830 -0.00866607
0.00024753 0.91438830 -0.00866647
0.00065979 0.91438830 -0.00914578
0.00066012 0.91438830 -0.00914618
0.00108098 0.91438830 -0.00963376
0.00108133 0.91438830 -0.00963416
0.00148676 0.91438830 -0.01014655
0.00148709 0.91438830 -0.01014697
0.00188367 0.91438830 -0.01069022
0.00188400 0.91438830 -0.01069066
0.00232669 0.91438830 -0.01121300
0.00232705 0.91438830 -0.01121343
0.00283442 0.91438830 -0.01167712
0.00283484 0.91438830 -0.01167750
0.00337544 0.91438830 -0.01211600
0.00337588 0.91438830 -0.01211636
0.00393775 0.91438830 -0.01254954
0.00393821 0.91438830 -0.01254990
0.00451883 0.91438830 -0.01297751
0.00451930 0.91438830 -0.01297786
0.00511854 0.91438830 -0.01340039
0.00511903 0.91438830 -0.01340074
0.00573810 0.91438830 -0.01381812
0.00573860 0.91438830 -0.01381846
0.00637572 0.91438830 -0.01422827
0.00637624 0.91438830 -0.01422861
0.00703439 0.91438830 -0.01463548
0.00703493 0.91438830 -0.01463582
0.00770943 0.91438830 -0.01503662
0.00770998 0.91438830 -0.01503695
0.00840333 0.91438830 -0.01543539
0.00840390 0.91438830 -0.01543571
0.00911860 0.91438830 -0.01583147
0.00911918 0.91438830 -0.01583180
0.00984672 0.91438830 -0.01622471
0.00984731 0.91438830 -0.01622503
0.01059527 0.91438830 -0.01661945
0.01059588 0.91438830 -0.01661978
0.01136503 0.91438830 -0.01700846
0.01136566 0.91438830 -0.01700878
0.01215204 0.91438830 -0.01738973
0.01215269 0.91438830 -0.01739004
0.01295927 0.91438830 -0.01777316
0.01295993 0.91438830 -0.01777348
0.01377888 0.91438830 -0.01816695
0.01377955 0.91438830 -0.01816728
0.01461069 0.91438830 -0.01857392
0.01461136 0.91438830 -0.01857426
0.01546568 0.91438830 -0.01897087
0.01546638 0.91438830 -0.01897120
0.01634605 0.91438830 -0.01934490
0.01634677 0.91438830 -0.01934521
0.01724937 0.91438830 -0.01972082
0.01725011 0.91438830 -0.01972112
0.01815854 0.91438830 -0.02012078
0.01815929 0.91438830 -0.02012110
0.01907508 0.91438830 -0.02055203
0.01907583 0.91438830 -0.02055238
0.02002061 0.91438830 -0.02096633
0.02002139 0.91438830 -0.02096666
0.02099709 0.91438830 -0.02133562
0.02099788 0.91438830 -0.02133593
0.02199764 0.91438830 -0.02170012
0.02199846 0.91438830 -0.02170041
0.02300288 0.91438830 -0.02209944
0.02300370 0.91438830 -0.02209977
0.02401348 0.91438830 -0.02253954
0.02401430 0.91438830 -0.02253990
0.02505545 0.91438830 -0.02295985
0.02505630 0.91438830 -0.02296020
0.02613215 0.91438830 -0.02331920
0.02613302 0.91438830 -0.02331949
0.02722840 0.91438830 -0.02366917
0.02722930 0.91438830 -0.02366946
0.02833366 0.91438830 -0.02405978
0.02833456 0.91438830 -0.02406010
0.02944571 0.91438830 -0.02449573
0.02944662 0.91438830 -0.02449608
0.03058503 0.91438830 -0.02491338
0.03058596 0.91438830 -0.02491373
0.03175615 0.91438830 -0.02527781
0.03175710 0.91438830 -0.02527810
0.03294062 0.91438830 -0.02565940
0.03294159 0.91438830 -0.02565972
0.03413567 0.91438830 -0.02608603
0.03413665 0.91438830 -0.02608638
0.03535416 0.91438830 -0.02648780
0.03535515 0.91438830 -0.02648813
0.03660718 0.91438830 -0.02682114
0.03660821 0.91438830 -0.02682141
0.03788426 0.91438830 -0.02714245
0.03788530 0.91438830 -0.02714271
0.03917086 0.91438830 -0.02750503
0.03917191 0.91438830 -0.02750532
0.04046571 0.91438830 -0.02791762
0.04046677 0.91438830 -0.02791796
0.04178134 0.91438830 -0.02832085
0.04178242 0.91438830 -0.02832118
0.04312125 0.91438830 -0.02869274
0.04312234 0.91438830 -0.02869305
0.04447891 0.91438830 -0.02907904
0.04448002 0.91438830 -0.02907935
0.04586189 0.91438830 -0.02944453
0.04586301 0.91438830 -0.02944483
0.04727235 0.91438830 -0.02975815
0.04727350 0.91438830 -0.02975840
0.04869965 0.91438830 -0.03007825
0.04870081 0.91438830 -0.03007851
0.05013587 0.91438830 -0.03043216
0.05013705 0.91438830 -0.03043245
0.05159898 0.91438830 -0.03076984
0.05160017 0.91438830 -0.03077012
0.05308781 0.91438830 -0.03106068
0.05308902 0.91438830 -0.03106091
0.05459167 0.91438830 -0.03135646
0.05459290 0.91438830 -0.03135670
0.05611071 0.91438830 -0.03167956
0.05611195 0.91438830 -0.03167982
0.05765194 0.91438830 -0.03198693
0.05765320 0.91438830 -0.03198718
0.05921699 0.91438830 -0.03225530
0.05921826 0.91438830 -0.03225552
0.06079944 0.91438830 -0.03252632
0.06080074 0.91438830 -0.03252654
0.06239607 0.91438830 -0.03281879
0.06239737 0.91438830 -0.03281903
0.06401323 0.91438830 -0.03309767
0.06401455 0.91438830 -0.03309789
0.06565275 0.91438830 -0.03334419
0.06565408 0.91438830 -0.03334439
0.06730904 0.91438830 -0.03359347
0.06731039 0.91438830 -0.03359368
0.06898116 0.91438830 -0.03386224
0.06898253 0.91438830 -0.03386246
0.07067343 0.91438830 -0.03412450
0.07067481 0.91438830 -0.03412472
0.07238609 0.91438830 -0.03436915
0.07238749 0.91438830 -0.03436935
0.07411339 0.91438830 -0.03461847
0.07411480 0.91438830 -0.03461867
0.07585894 0.91438830 -0.03486048
0.07586037 0.91438830 -0.03486068
0.07762383 0.91438830 -0.03508652
0.07762527 0.91438830 -0.03508670
0.07940850 0.91438830 -0.03531575
0.07940996 0.91438830 -0.03531594
0.08121214 0.91438830 -0.03553742
0.08121361 0.91438830 -0.03553760
0.08303369 0.91438830 -0.03574393
0.08303518 0.91438830 -0.03574410
0.08486937 0.91438830 -0.03595234
0.08487087 0.91438830 -0.03595251
0.08672512 0.91438830 -0.03615456
0.08672664 0.91438830 -0.03615472
0.08859950 0.91438830 -0.03634223
0.08860103 0.91438830 -0.03634239
0.09049164 0.91438830 -0.03652363
0.09049319 0.91438830 -0.03652378
0.09240360 0.91438830 -0.03666125
0.09240516 0.91438830 -0.03666137
0.09434514 0.91438830 -0.03663459
0.09434673 0.91438830 -0.03663457
0.09633947 0.91438830 -0.03608927
0.09634110 0.91438830 -0.03608883
0.09842928 0.91438830 -0.03436071
0.09843099 0.91438830 -0.03435930
0.10057468 0.91438830 -0.03188566
0.10057644 0.91438830 -0.03188364
0.10264734 0.91438830 -0.03056668
0.10264904 0.91438830 -0.03056560
0.10465252 0.91438830 -0.03049807
0.10465416 0.91438830 -0.03049802
0.10666366 0.91438830 -0.03059811
0.10666530 0.91438830 -0.03059819
0.10869197 0.91438830 -0.03070667
0.10869362 0.91438830 -0.03070676
0.11073596 0.91438830 -0.03081645
0.11073763 0.91438830 -0.03081654
0.11279696 0.91438830 -0.03092145
0.11279864 0.91438830 -0.03092154
0.11487493 0.91438830 -0.03102146
0.11487664 0.91438830 -0.03102154
0.11696893 0.91438830 -0.03111646
0.11697064 0.91438830 -0.03111654
0.11907991 0.91438830 -0.03120646
0.11908163 0.91438830 -0.03120654
0.12120790 0.91438830 -0.03129247
0.12120964 0.91438830 -0.03129254
0.12335188 0.91438830 -0.03137247
0.12335364 0.91438830 -0.03137254
0.12551187 0.91438830 -0.03144848
0.12551363 0.91438830 -0.03144854
0.12768785 0.91438830 -0.03151948
0.12768964 0.91438830 -0.03151954
0.12988085 0.91438830 -0.03158648
0.12988264 0.91438830 -0.03158654
0.13208882 0.91438830 -0.03164749
0.13209063 0.91438830 -0.03164754
0.13431383 0.91438830 -0.03170349
0.13431564 0.91438830 -0.03170354
0.13655481 0.91438830 -0.03175549
0.13655664 0.91438830 -0.03175554
0.13881080 0.91438830 -0.03180250
0.13881264 0.91438830 -0.03180254
0.14108278 0.91438830 -0.03184450
0.14108463 0.91438830 -0.03184453
0.14336977 0.91438830 -0.03188151
0.14337164 0.91438830 -0.03188154
0.14567375 0.91438830 -0.03191351
0.14567563 0.91438830 -0.03191354
0.14799173 0.91438830 -0.03194052
0.14799363 0.91438830 -0.03194054
0.15032572 0.91438830 -0.03196252
0.15032764 0.91438830 -0.03196254
0.15267472 0.91438830 -0.03197952
0.15267663 0.91438830 -0.03197953
0.15503871 0.91438830 -0.03199253
0.15504063 0.91438830 -0.03199254
0.15741868 0.91438830 -0.03200053
0.15742062 0.91438830 -0.03200053
0.15981267 0.91438830 -0.03200253
0.15981463 0.91438830 -0.03200254
0.16222166 0.91438830 -0.03200054
0.16222363 0.91438830 -0.03200053
0.16464565 0.91438830 -0.03199354
0.16464764 0.91438830 -0.03199353
0.16708465 0.91438830 -0.03198154
0.16708664 0.91438830 -0.03198154
0.16953764 0.91438830 -0.03196455
0.16953964 0.91438830 -0.03196454
0.17200561 0.91438830 -0.03194256
0.17200763 0.91438830 -0.03194254
0.17448761 0.91438830 -0.03191656
0.17448964 0.91438830 -0.03191654
0.17698359 0.91438830 -0.03188456
0.17698563 0.91438830 -0.03188454
0.17949460 0.91438830 -0.03184856
0.17949664 0.91438830 -0.03184854
0.18201858 0.91438830 -0.03180757
0.18202064 0.91438830 -0.03180754
0.18455755 0.91438830 -0.03176157
0.18455963 0.91438830 -0.03176154
0.18710955 0.91438830 -0.03171058
0.18711164 0.91438830 -0.03171053
0.18967653 0.91438830 -0.03165558
0.18967863 0.91438830 -0.03165554
0.19225654 0.91438830 -0.03159459
0.19225864 0.91438830 -0.03159454
0.19484951 0.91438830 -0.03152959
0.19485163 0.91438830 -0.03152954
0.19745651 0.91438830 -0.03145959
0.19745864 0.91438830 -0.03145954
0.20007649 0.91438830 -0.03138560
0.20007863 0.91438830 -0.03138554
0.20271049 0.91438830 -0.03130660
0.20271263 0.91438830 -0.03130654
0.20535746 0.91438830 -0.03122261
0.20535962 0.91438830 -0.03122254
0.20801746 0.91438830 -0.03113361
0.20801963 0.91438830 -0.03113354
0.21068947 0.91438830 -0.03104061
0.21069164 0.91438830 -0.03104054
0.21337543 0.91438830 -0.03094262
0.21337763 0.91438830 -0.03094254
0.21607344 0.91438830 -0.03083962
0.21607564 0.91438830 -0.03083954
0.21878441 0.91438830 -0.03073262
0.21878663 0.91438830 -0.03073254
0.22150842 0.91438830 -0.03062063
0.22151064 0.91438830 -0.03062054
0.22424439 0.91438830 -0.03050463
0.22424663 0.91438830 -0.03050454
0.22699239 0.91438830 -0.03038363
0.22699464 0.91438830 -0.03038354
0.22975339 0.91438830 -0.03025764
0.22975564 0.91438830 -0.03025754
0.23252537 0.91438830 -0.03012764
0.23252763 0.91438830 -0.03012754
0.23531035 0.91438830 -0.02999365
0.23531263 0.91438830 -0.02999354
0.23810635 0.91438830 -0.02985465
0.23810863 0.91438830 -0.02985454
0.24091434 0.91438830 -0.02971165
0.24091663 0.91438830 -0.02971154
0.24373432 0.91438830 -0.02956366
0.24373663 0.91438830 -0.02956354
0.24656533 0.91438830 -0.02941166
0.24656763 0.91438830 -0.02941154
0.24940831 0.91438830 -0.02925566
0.24941063 0.91438830 -0.02925553
0.25226230 0.91438830 -0.02909467
0.25226463 0.91438830 -0.02909454
0.25512727 0.91438830 -0.02892967
0.25512962 0.91438830 -0.02892954
0.25800330 0.91438830 -0.02876067
0.25800565 0.91438830 -0.02876054
0.26089028 0.91438830 -0.02858768
0.26089263 0.91438830 -0.02858754
0.26378824 0.91438830 -0.02840968
0.26379062 0.91438830 -0.02840954
0.26669726 0.91438830 -0.02822769
0.26669964 0.91438830 -0.02822754
0.26961623 0.91438830 -0.02804169
0.26961861 0.91438830 -0.02804154
0.27254627 0.91438830 -0.02785169
0.27254865 0.91438830 -0.02785154
0.27548720 0.91438830 -0.02765769
0.27548961 0.91438830 -0.02765754
0.27843723 0.91438830 -0.02745970
0.27843964 0.91438830 -0.02745954
0.28139824 0.91438830 -0.02725670
0.28140065 0.91438830 -0.02725654
0.28436818 0.91438830 -0.02705071