#+++++++++++++++++++++++++++++++++++++++++++++++++++++++++++++++++++++++++++++++++++++++++++++++++++++++++++++++++++++++++++++++++
#
#   IPW-3 Cut/Slice DATA SUBMITTAL FORM for Test Case NACA0012_AE3933, May 18th 2026
#
#       NOMENCLATURE:
#                  X [m]:  X-coordinate of the surface (clean for reference)
#                  Y [m]:  Y-coordinate of the surface (clean for reference)
#                  Z [m]:  Z-coordinate of the surface (clean for reference)
#                 Cp [-]:  Pressure coefficient
#            HTC [W/m2K]:  Convective Heat Transfer Coefficient (on the rough surface)
#               Beta [-]:  Collection efficiency
#                 Ts [K]:  Surface temperature
#                 FF [-]:  Freezing fraction
#                  k [m]:  Surface roughness height if variable (OPTIONAL)
#         RhoIce [kg/m3]:  Ice density (OPTIONAL)
#      HTC_CLEAN [W/m2K]:  Convective Heat Transfer Coefficient on the surface without roughness (OPTIONAL)
#
#                1mm:  Roughness height used for the case, in mm.
#                       In the zone name, use the format KS_1mm.
#                       For example, if k_s = 1.5 mm, use KS_1p5mm.
#                       For Variable roughness, use KS_VAR
#
#    FLOW CONDITIONS:
#                                   AOA: 4.0 deg
#                           Mach Number: 0.3127 [-]
#       Mean aerodynamic chord (M.A.C.): 0.5334 [m]
#                       Reynolds Number: 3.8947 million (based on MAC)
#                       Freestream Temp: 265.8 [K]
#                        Reference area: 0.97548 [m2]
#               Moment Reference Center: 0.13335, 0, 0 [m] (X, Y, Z)
#
#    ICING CONDITIONS:
#                           Icing Time: 420 [s]
#                                  LWC: 0.55 [g/m3]
#                                  MVD: 20 [μm]
#
#              NOTES: 1. Please use at least 5 decimal places in the numerical values
#                     2. If data are NOT provided, please fill data fields with a numerical value of "-999"
#
#++++++++++++++++++++++++++++++++++++++++++++++++++++++++++++++++++++++++++++++++++++++++++++++++++++++++++++++++++++


VARIABLES = "X" "Y" "Z" "Cp" "HTC" "Beta" "Ts" "FF" "k" "RhoIce" "HTC_CLEAN"

 ZONE T="SLICE_Y_0p9144_BINS01_KS_1mm_CUTDATA"
0.53339962 0.91439998 0.00068246 1.436389685E-01 4.840272217E+02 -7.165880536E-18 2.665282288E+02 0.000000000E+00 -999 -999 -999
0.53003467 0.91439998 0.00115247 1.436389685E-01 4.840272217E+02 -7.165880536E-18 2.665280457E+02 0.000000000E+00 -999 -999 -999
0.53003467 0.91439998 0.00115247 1.436389685E-01 4.840272217E+02 -7.165880536E-18 2.665280457E+02 0.000000000E+00 -999 -999 -999
0.52666963 0.91439998 0.00161946 1.343134195E-01 4.780628967E+02 9.086052115E-18 2.665272522E+02 0.000000000E+00 -999 -999 -999
0.52666963 0.91439998 0.00161946 1.343134195E-01 4.780628967E+02 9.086052115E-18 2.665272522E+02 0.000000000E+00 -999 -999 -999
0.52330564 0.91439998 0.00208246 1.343134195E-01 4.780628967E+02 9.086052115E-18 2.665242920E+02 0.000000000E+00 -999 -999 -999
0.52330564 0.91439998 0.00208246 1.343134195E-01 4.780628967E+02 9.086052115E-18 2.665242920E+02 0.000000000E+00 -999 -999 -999
0.51994163 0.91439998 0.00254146 1.343134195E-01 4.780628967E+02 9.086052115E-18 2.665158691E+02 0.000000000E+00 -999 -999 -999
0.51994163 0.91439998 0.00254146 1.343134195E-01 4.780628967E+02 9.086052115E-18 2.665158691E+02 0.000000000E+00 -999 -999 -999
0.51657766 0.91439998 0.00299746 1.343134195E-01 4.780628967E+02 9.086052115E-18 2.665010986E+02 0.000000000E+00 -999 -999 -999
0.51657766 0.91439998 0.00299746 1.343134195E-01 4.780628967E+02 9.086052115E-18 2.665010986E+02 0.000000000E+00 -999 -999 -999
0.51321467 0.91439998 0.00345047 1.343134195E-01 4.780628967E+02 9.086052115E-18 2.664855042E+02 0.000000000E+00 -999 -999 -999
0.51321467 0.91439998 0.00345047 1.343134195E-01 4.780628967E+02 9.086052115E-18 2.664855042E+02 0.000000000E+00 -999 -999 -999
0.50985263 0.91439998 0.00389846 1.282497048E-01 4.763182373E+02 -1.059122635E-17 2.664680176E+02 0.000000000E+00 -999 -999 -999
0.50985263 0.91439998 0.00389846 1.282497048E-01 4.763182373E+02 -1.059122635E-17 2.664680176E+02 0.000000000E+00 -999 -999 -999
0.50649168 0.91439998 0.00434447 1.172034368E-01 4.772233582E+02 -1.242052056E-17 2.664371643E+02 0.000000000E+00 -999 -999 -999
0.50649168 0.91439998 0.00434447 1.172034368E-01 4.772233582E+02 -1.242052056E-17 2.664371643E+02 0.000000000E+00 -999 -999 -999
0.50313162 0.91439998 0.00478546 1.172034368E-01 4.772233582E+02 -1.242052056E-17 2.663951721E+02 0.000000000E+00 -999 -999 -999
0.50313162 0.91439998 0.00478546 1.172034368E-01 4.772233582E+02 -1.242052056E-17 2.663951721E+02 0.000000000E+00 -999 -999 -999
0.49977263 0.91439998 0.00522446 1.020135880E-01 4.805822754E+02 -2.763757044E-18 2.663536682E+02 0.000000000E+00 -999 -999 -999
0.49977263 0.91439998 0.00522446 1.020135880E-01 4.805822754E+02 -2.763757044E-18 2.663536682E+02 0.000000000E+00 -999 -999 -999
0.49641565 0.91439998 0.00565946 1.020135880E-01 4.805822754E+02 -2.763757044E-18 2.663115540E+02 0.000000000E+00 -999 -999 -999
0.49641565 0.91439998 0.00565946 1.020135880E-01 4.805822754E+02 -2.763757044E-18 2.663115540E+02 0.000000000E+00 -999 -999 -999
0.49305963 0.91439998 0.00609046 8.417325467E-02 4.859646606E+02 1.021757894E-17 2.662660522E+02 0.000000000E+00 -999 -999 -999
0.49305963 0.91439998 0.00609046 8.417325467E-02 4.859646606E+02 1.021757894E-17 2.662660522E+02 0.000000000E+00 -999 -999 -999
0.48970464 0.91439998 0.00651846 8.417325467E-02 4.859646606E+02 1.021757894E-17 2.662177124E+02 0.000000000E+00 -999 -999 -999
0.48970464 0.91439998 0.00651846 8.417325467E-02 4.859646606E+02 1.021757894E-17 2.662177124E+02 0.000000000E+00 -999 -999 -999
0.48635164 0.91439998 0.00694346 6.525678933E-02 4.927598572E+02 -1.293387464E-17 2.661637573E+02 0.000000000E+00 -999 -999 -999
0.48635164 0.91439998 0.00694346 6.525678933E-02 4.927598572E+02 -1.293387464E-17 2.661637573E+02 0.000000000E+00 -999 -999 -999
0.48300164 0.91439998 0.00736546 6.525678933E-02 4.927598572E+02 -1.293387464E-17 2.661009827E+02 0.000000000E+00 -999 -999 -999
0.48300164 0.91439998 0.00736546 6.525678933E-02 4.927598572E+02 -1.293387464E-17 2.661009827E+02 0.000000000E+00 -999 -999 -999
0.47965263 0.91439998 0.00778346 4.626055062E-02 5.003157349E+02 6.672971053E-18 2.660325317E+02 0.000000000E+00 -999 -999 -999
0.47965263 0.91439998 0.00778346 4.626055062E-02 5.003157349E+02 6.672971053E-18 2.660325317E+02 0.000000000E+00 -999 -999 -999
0.47630562 0.91439998 0.00819846 2.825231105E-02 5.082050781E+02 8.371715481E-18 2.659734192E+02 0.000000000E+00 -999 -999 -999
0.47630562 0.91439998 0.00819846 2.825231105E-02 5.082050781E+02 8.371715481E-18 2.659734192E+02 0.000000000E+00 -999 -999 -999
0.47296164 0.91439998 0.00860946 1.125883777E-02 5.160378418E+02 -8.854531706E-18 2.659155884E+02 0.000000000E+00 -999 -999 -999
0.47296164 0.91439998 0.00860946 1.125883777E-02 5.160378418E+02 -8.854531706E-18 2.659155884E+02 0.000000000E+00 -999 -999 -999
0.46961963 0.91439998 0.00901746 1.125883777E-02 5.160378418E+02 -8.854531706E-18 2.658551636E+02 0.000000000E+00 -999 -999 -999
0.46961963 0.91439998 0.00901746 1.125883777E-02 5.160378418E+02 -8.854531706E-18 2.658551636E+02 0.000000000E+00 -999 -999 -999
0.46627966 0.91439998 0.00942246 -4.497290589E-03 5.236531372E+02 5.529613887E-18 2.658070068E+02 0.000000000E+00 -999 -999 -999
0.46627966 0.91439998 0.00942246 -4.497290589E-03 5.236531372E+02 5.529613887E-18 2.658070068E+02 0.000000000E+00 -999 -999 -999
0.46294261 0.91439998 0.00982446 -4.497290589E-03 5.236531372E+02 5.529613887E-18 2.657672729E+02 0.000000000E+00 -999 -999 -999
0.46294261 0.91439998 0.00982446 -4.497290589E-03 5.236531372E+02 5.529613887E-18 2.657672729E+02 0.000000000E+00 -999 -999 -999
0.45960864 0.91439998 0.01022346 -1.917988434E-02 5.309568481E+02 1.962433891E-18 2.657283936E+02 0.000000000E+00 -999 -999 -999
0.45960864 0.91439998 0.01022346 -1.917988434E-02 5.309568481E+02 1.962433891E-18 2.657283936E+02 0.000000000E+00 -999 -999 -999
0.45627764 0.91439998 0.01061846 -1.917988434E-02 5.309568481E+02 1.962433891E-18 2.656902771E+02 0.000000000E+00 -999 -999 -999
0.45627764 0.91439998 0.01061846 -1.917988434E-02 5.309568481E+02 1.962433891E-18 2.656902771E+02 0.000000000E+00 -999 -999 -999
0.45294963 0.91439998 0.01101046 -3.302263096E-02 5.379202881E+02 1.544907198E-17 2.656498718E+02 0.000000000E+00 -999 -999 -999
0.45294963 0.91439998 0.01101046 -3.302263096E-02 5.379202881E+02 1.544907198E-17 2.656498718E+02 0.000000000E+00 -999 -999 -999
0.44962562 0.91439998 0.01139946 -3.302263096E-02 5.379202881E+02 1.544907198E-17 2.656044006E+02 0.000000000E+00 -999 -999 -999
0.44962562 0.91439998 0.01139946 -3.302263096E-02 5.379202881E+02 1.544907198E-17 2.656044006E+02 0.000000000E+00 -999 -999 -999
0.44630363 0.91439998 0.01178446 -4.634555429E-02 5.446394043E+02 5.507253127E-18 2.655552673E+02 0.000000000E+00 -999 -999 -999
0.44630363 0.91439998 0.01178446 -4.634555429E-02 5.446394043E+02 5.507253127E-18 2.655552673E+02 0.000000000E+00 -999 -999 -999
0.44298565 0.91439998 0.01216746 -5.919283628E-02 5.510753784E+02 5.264719635E-18 2.655125122E+02 0.000000000E+00 -999 -999 -999
0.44298565 0.91439998 0.01216746 -5.919283628E-02 5.510753784E+02 5.264719635E-18 2.655125122E+02 0.000000000E+00 -999 -999 -999
0.43967164 0.91439998 0.01254646 -7.174824178E-02 5.573657227E+02 1.105758086E-18 2.654698486E+02 0.000000000E+00 -999 -999 -999
0.43967164 0.91439998 0.01254646 -7.174824178E-02 5.573657227E+02 1.105758086E-18 2.654698486E+02 0.000000000E+00 -999 -999 -999
0.43636064 0.91439998 0.01292246 -7.174824178E-02 5.573657227E+02 1.105758086E-18 2.654244995E+02 0.000000000E+00 -999 -999 -999
0.43636064 0.91439998 0.01292246 -7.174824178E-02 5.573657227E+02 1.105758086E-18 2.654244995E+02 0.000000000E+00 -999 -999 -999
0.43305364 0.91439998 0.01329546 -8.397634327E-02 5.634577026E+02 3.016165418E-18 2.653874512E+02 0.000000000E+00 -999 -999 -999
0.43305364 0.91439998 0.01329546 -8.397634327E-02 5.634577026E+02 3.016165418E-18 2.653874512E+02 0.000000000E+00 -999 -999 -999
0.42975065 0.91439998 0.01366546 -8.397634327E-02 5.634577026E+02 3.016165418E-18 2.653559570E+02 0.000000000E+00 -999 -999 -999
0.42975065 0.91439998 0.01366546 -8.397634327E-02 5.634577026E+02 3.016165418E-18 2.653559570E+02 0.000000000E+00 -999 -999 -999
0.42645263 0.91439998 0.01403146 -9.587299824E-02 5.693799438E+02 -7.006621798E-18 2.653247070E+02 0.000000000E+00 -999 -999 -999
0.42645263 0.91439998 0.01403146 -9.587299824E-02 5.693799438E+02 -7.006621798E-18 2.653247070E+02 0.000000000E+00 -999 -999 -999
0.42315761 0.91439998 0.01439546 -9.587299824E-02 5.693799438E+02 -7.006621798E-18 2.652942200E+02 0.000000000E+00 -999 -999 -999
0.42315761 0.91439998 0.01439546 -9.587299824E-02 5.693799438E+02 -7.006621798E-18 2.652942200E+02 0.000000000E+00 -999 -999 -999
0.41986763 0.91439998 0.01475546 -1.074253544E-01 5.751488647E+02 -1.025806116E-17 2.652636108E+02 0.000000000E+00 -999 -999 -999
0.41986763 0.91439998 0.01475546 -1.074253544E-01 5.751488647E+02 -1.025806116E-17 2.652636108E+02 0.000000000E+00 -999 -999 -999
0.41658264 0.91439998 0.01511246 -1.074253544E-01 5.751488647E+02 -1.025806116E-17 2.652330627E+02 0.000000000E+00 -999 -999 -999
0.41658264 0.91439998 0.01511246 -1.074253544E-01 5.751488647E+02 -1.025806116E-17 2.652330627E+02 0.000000000E+00 -999 -999 -999
0.41330165 0.91439998 0.01546646 -1.186608151E-01 5.807736816E+02 -3.762421917E-18 2.652001038E+02 0.000000000E+00 -999 -999 -999
0.41330165 0.91439998 0.01546646 -1.186608151E-01 5.807736816E+02 -3.762421917E-18 2.652001038E+02 0.000000000E+00 -999 -999 -999
0.41002566 0.91439998 0.01581646 -1.186608151E-01 5.807736816E+02 -3.762421917E-18 2.651624146E+02 0.000000000E+00 -999 -999 -999
0.41002566 0.91439998 0.01581646 -1.186608151E-01 5.807736816E+02 -3.762421917E-18 2.651624146E+02 0.000000000E+00 -999 -999 -999
0.40675463 0.91439998 0.01616346 -1.297074258E-01 5.862939453E+02 -2.333795386E-18 2.651212769E+02 0.000000000E+00 -999 -999 -999
0.40675463 0.91439998 0.01616346 -1.297074258E-01 5.862939453E+02 -2.333795386E-18 2.651212769E+02 0.000000000E+00 -999 -999 -999
0.40348765 0.91439998 0.01650846 -1.406242102E-01 5.917001343E+02 1.241450138E-18 2.650848999E+02 0.000000000E+00 -999 -999 -999
0.40348765 0.91439998 0.01650846 -1.406242102E-01 5.917001343E+02 1.241450138E-18 2.650848999E+02 0.000000000E+00 -999 -999 -999
0.40022666 0.91439998 0.01684946 -1.514923126E-01 5.970601196E+02 -7.016288231E-18 2.650480042E+02 0.000000000E+00 -999 -999 -999
0.40022666 0.91439998 0.01684946 -1.514923126E-01 5.970601196E+02 -7.016288231E-18 2.650480042E+02 0.000000000E+00 -999 -999 -999
0.39697162 0.91439998 0.01718646 -1.514923126E-01 5.970601196E+02 -7.016288231E-18 2.650083618E+02 0.000000000E+00 -999 -999 -999
0.39697162 0.91439998 0.01718646 -1.514923126E-01 5.970601196E+02 -7.016288231E-18 2.650083618E+02 0.000000000E+00 -999 -999 -999
0.39372064 0.91439998 0.01752146 -1.623334289E-01 6.023463745E+02 -6.905582100E-18 2.649755859E+02 0.000000000E+00 -999 -999 -999
0.39372064 0.91439998 0.01752146 -1.623334289E-01 6.023463745E+02 -6.905582100E-18 2.649755859E+02 0.000000000E+00 -999 -999 -999
0.39047663 0.91439998 0.01785246 -1.623334289E-01 6.023463745E+02 -6.905582100E-18 2.649473267E+02 0.000000000E+00 -999 -999 -999
0.39047663 0.91439998 0.01785246 -1.623334289E-01 6.023463745E+02 -6.905582100E-18 2.649473267E+02 0.000000000E+00 -999 -999 -999
0.38723764 0.91439998 0.01818046 -1.730841994E-01 6.075750122E+02 4.804421748E-18 2.649190369E+02 0.000000000E+00 -999 -999 -999
0.38723764 0.91439998 0.01818046 -1.730841994E-01 6.075750122E+02 4.804421748E-18 2.649190369E+02 0.000000000E+00 -999 -999 -999
0.38400466 0.91439998 0.01850547 -1.730841994E-01 6.075750122E+02 4.804421748E-18 2.648912659E+02 0.000000000E+00 -999 -999 -999
0.38400466 0.91439998 0.01850547 -1.730841994E-01 6.075750122E+02 4.804421748E-18 2.648912659E+02 0.000000000E+00 -999 -999 -999
0.38077664 0.91439998 0.01882646 -1.836715937E-01 6.127507935E+02 6.589566846E-18 2.648633423E+02 0.000000000E+00 -999 -999 -999
0.38077664 0.91439998 0.01882646 -1.836715937E-01 6.127507935E+02 6.589566846E-18 2.648633423E+02 0.000000000E+00 -999 -999 -999
0.37755564 0.91439998 0.01914546 -1.836715937E-01 6.127507935E+02 6.589566846E-18 2.648359375E+02 0.000000000E+00 -999 -999 -999
0.37755564 0.91439998 0.01914546 -1.836715937E-01 6.127507935E+02 6.589566846E-18 2.648359375E+02 0.000000000E+00 -999 -999 -999
0.37434065 0.91439998 0.01946046 -1.940570325E-01 6.178796387E+02 -4.265488919E-19 2.648082581E+02 0.000000000E+00 -999 -999 -999
0.37434065 0.91439998 0.01946046 -1.940570325E-01 6.178796387E+02 -4.265488919E-19 2.648082581E+02 0.000000000E+00 -999 -999 -999
0.37113263 0.91439998 0.01977146 -1.940570325E-01 6.178796387E+02 -4.265488919E-19 2.647804260E+02 0.000000000E+00 -999 -999 -999
0.37113263 0.91439998 0.01977146 -1.940570325E-01 6.178796387E+02 -4.265488919E-19 2.647804260E+02 0.000000000E+00 -999 -999 -999
0.36792963 0.91439998 0.02008046 -2.043152899E-01 6.229743652E+02 5.080289481E-19 2.647501526E+02 0.000000000E+00 -999 -999 -999
0.36792963 0.91439998 0.02008046 -2.043152899E-01 6.229743652E+02 5.080289481E-19 2.647501526E+02 0.000000000E+00 -999 -999 -999
0.36473465 0.91439998 0.02038446 -2.145746052E-01 6.280267334E+02 1.045569281E-17 2.647153625E+02 0.000000000E+00 -999 -999 -999
0.36473465 0.91439998 0.02038446 -2.145746052E-01 6.280267334E+02 1.045569281E-17 2.647153625E+02 0.000000000E+00 -999 -999 -999
0.36154564 0.91439998 0.02068646 -2.145746052E-01 6.280267334E+02 1.045569281E-17 2.646776733E+02 0.000000000E+00 -999 -999 -999
0.36154564 0.91439998 0.02068646 -2.145746052E-01 6.280267334E+02 1.045569281E-17 2.646776733E+02 0.000000000E+00 -999 -999 -999
0.35836362 0.91439998 0.02098446 -2.249109149E-01 6.330797729E+02 -5.556811585E-18 2.646463013E+02 0.000000000E+00 -999 -999 -999
0.35836362 0.91439998 0.02098446 -2.249109149E-01 6.330797729E+02 -5.556811585E-18 2.646463013E+02 0.000000000E+00 -999 -999 -999
0.35518863 0.91439998 0.02127946 -2.249109149E-01 6.330797729E+02 -5.556811585E-18 2.646188965E+02 0.000000000E+00 -999 -999 -999
0.35518863 0.91439998 0.02127946 -2.249109149E-01 6.330797729E+02 -5.556811585E-18 2.646188965E+02 0.000000000E+00 -999 -999 -999
0.35202065 0.91439998 0.02157046 -2.353938371E-01 6.381255493E+02 -6.063706624E-18 2.645912170E+02 0.000000000E+00 -999 -999 -999
0.35202065 0.91439998 0.02157046 -2.353938371E-01 6.381255493E+02 -6.063706624E-18 2.645912170E+02 0.000000000E+00 -999 -999 -999
0.34885962 0.91439998 0.02185846 -2.353938371E-01 6.381255493E+02 -6.063706624E-18 2.645636902E+02 0.000000000E+00 -999 -999 -999
0.34885962 0.91439998 0.02185846 -2.353938371E-01 6.381255493E+02 -6.063706624E-18 2.645636902E+02 0.000000000E+00 -999 -999 -999
0.34570663 0.91439998 0.02214346 -2.459930778E-01 6.431712036E+02 -8.381575474E-18 2.645357056E+02 0.000000000E+00 -999 -999 -999
0.34570663 0.91439998 0.02214346 -2.459930778E-01 6.431712036E+02 -8.381575474E-18 2.645357056E+02 0.000000000E+00 -999 -999 -999
0.34256064 0.91439998 0.02242446 -2.459930778E-01 6.431712036E+02 -8.381575474E-18 2.645079041E+02 0.000000000E+00 -999 -999 -999
0.34256064 0.91439998 0.02242446 -2.459930778E-01 6.431712036E+02 -8.381575474E-18 2.645079041E+02 0.000000000E+00 -999 -999 -999
0.33942162 0.91439998 0.02270146 -2.566331327E-01 6.482168579E+02 6.207931767E-18 2.644795837E+02 0.000000000E+00 -999 -999 -999
0.33942162 0.91439998 0.02270146 -2.566331327E-01 6.482168579E+02 6.207931767E-18 2.644795837E+02 0.000000000E+00 -999 -999 -999
0.33629165 0.91439998 0.02297646 -2.566331327E-01 6.482168579E+02 6.207931767E-18 2.644508972E+02 0.000000000E+00 -999 -999 -999
0.33629165 0.91439998 0.02297646 -2.566331327E-01 6.482168579E+02 6.207931767E-18 2.644508972E+02 0.000000000E+00 -999 -999 -999
0.33316866 0.91439998 0.02324647 -2.672296464E-01 6.532694092E+02 -5.533642670E-18 2.644196777E+02 0.000000000E+00 -999 -999 -999
0.33316866 0.91439998 0.02324647 -2.672296464E-01 6.532694092E+02 -5.533642670E-18 2.644196777E+02 0.000000000E+00 -999 -999 -999
0.33005361 0.91439998 0.02351346 -2.672296464E-01 6.532694092E+02 -5.533642670E-18 2.643837280E+02 0.000000000E+00 -999 -999 -999
0.33005361 0.91439998 0.02351346 -2.672296464E-01 6.532694092E+02 -5.533642670E-18 2.643837280E+02 0.000000000E+00 -999 -999 -999
0.32694664 0.91439998 0.02377646 -2.778024375E-01 6.583239136E+02 -9.729905309E-19 2.643448486E+02 0.000000000E+00 -999 -999 -999
0.32694664 0.91439998 0.02377646 -2.778024375E-01 6.583239136E+02 -9.729905309E-19 2.643448486E+02 0.000000000E+00 -999 -999 -999
0.32384864 0.91439998 0.02403646 -2.883947194E-01 6.633988647E+02 2.322533942E-18 2.643125610E+02 0.000000000E+00 -999 -999 -999
0.32384864 0.91439998 0.02403646 -2.883947194E-01 6.633988647E+02 2.322533942E-18 2.643125610E+02 0.000000000E+00 -999 -999 -999
0.32075862 0.91439998 0.02429246 -2.990393639E-01 6.685270996E+02 -5.795439130E-18 2.642845154E+02 0.000000000E+00 -999 -999 -999
0.32075862 0.91439998 0.02429246 -2.990393639E-01 6.685270996E+02 -5.795439130E-18 2.642845154E+02 0.000000000E+00 -999 -999 -999
0.31767662 0.91439998 0.02454446 -2.990393639E-01 6.685270996E+02 -5.795439130E-18 2.642562256E+02 0.000000000E+00 -999 -999 -999
0.31767662 0.91439998 0.02454446 -2.990393639E-01 6.685270996E+02 -5.795439130E-18 2.642562256E+02 0.000000000E+00 -999 -999 -999
0.31460364 0.91439998 0.02479346 -2.990393639E-01 6.685270996E+02 -5.795439130E-18 2.642281189E+02 0.000000000E+00 -999 -999 -999
0.31460364 0.91439998 0.02479346 -2.990393639E-01 6.685270996E+02 -5.795439130E-18 2.642281189E+02 0.000000000E+00 -999 -999 -999
0.31153862 0.91439998 0.02503846 -3.098287880E-01 6.737082520E+02 -2.369137505E-18 2.641995239E+02 0.000000000E+00 -999 -999 -999
0.31153862 0.91439998 0.02503846 -3.098287880E-01 6.737082520E+02 -2.369137505E-18 2.641995239E+02 0.000000000E+00 -999 -999 -999
0.30848362 0.91439998 0.02527946 -3.098287880E-01 6.737082520E+02 -2.369137505E-18 2.641710510E+02 0.000000000E+00 -999 -999 -999
0.30848362 0.91439998 0.02527946 -3.098287880E-01 6.737082520E+02 -2.369137505E-18 2.641710510E+02 0.000000000E+00 -999 -999 -999
0.30543663 0.91439998 0.02551746 -3.207340837E-01 6.789542847E+02 2.469119446E-18 2.641421509E+02 0.000000000E+00 -999 -999 -999
0.30543663 0.91439998 0.02551746 -3.207340837E-01 6.789542847E+02 2.469119446E-18 2.641421509E+02 0.000000000E+00 -999 -999 -999
0.30239964 0.91439998 0.02575046 -3.207340837E-01 6.789542847E+02 2.469119446E-18 2.641134338E+02 0.000000000E+00 -999 -999 -999
0.30239964 0.91439998 0.02575046 -3.207340837E-01 6.789542847E+02 2.469119446E-18 2.641134338E+02 0.000000000E+00 -999 -999 -999
0.29937065 0.91439998 0.02598047 -3.317045867E-01 6.842595825E+02 1.899377499E-18 2.640843506E+02 0.000000000E+00 -999 -999 -999
0.29937065 0.91439998 0.02598047 -3.317045867E-01 6.842595825E+02 1.899377499E-18 2.640843506E+02 0.000000000E+00 -999 -999 -999
0.29635162 0.91439998 0.02620646 -3.317045867E-01 6.842595825E+02 1.899377499E-18 2.640555115E+02 0.000000000E+00 -999 -999 -999
0.29635162 0.91439998 0.02620646 -3.317045867E-01 6.842595825E+02 1.899377499E-18 2.640555115E+02 0.000000000E+00 -999 -999 -999
0.29334264 0.91439998 0.02642846 -3.426845670E-01 6.896176147E+02 8.877057282E-19 2.640263062E+02 0.000000000E+00 -999 -999 -999
0.29334264 0.91439998 0.02642846 -3.426845670E-01 6.896176147E+02 8.877057282E-19 2.640263062E+02 0.000000000E+00 -999 -999 -999
0.29034162 0.91439998 0.02664646 -3.426845670E-01 6.896176147E+02 8.877057282E-19 2.639973145E+02 0.000000000E+00 -999 -999 -999
0.29034162 0.91439998 0.02664646 -3.426845670E-01 6.896176147E+02 8.877057282E-19 2.639973145E+02 0.000000000E+00 -999 -999 -999
0.28735163 0.91439998 0.02686146 -3.536986411E-01 6.950179443E+02 -5.860144920E-18 2.639677734E+02 0.000000000E+00 -999 -999 -999
0.28735163 0.91439998 0.02686146 -3.536986411E-01 6.950179443E+02 -5.860144920E-18 2.639677734E+02 0.000000000E+00 -999 -999 -999
0.28437061 0.91439998 0.02707146 -3.536986411E-01 6.950179443E+02 -5.860144920E-18 2.639376526E+02 0.000000000E+00 -999 -999 -999
0.28437061 0.91439998 0.02707146 -3.536986411E-01 6.950179443E+02 -5.860144920E-18 2.639376526E+02 0.000000000E+00 -999 -999 -999
0.28140064 0.91439998 0.02727746 -3.647791445E-01 7.004514771E+02 -6.024798529E-18 2.639045715E+02 0.000000000E+00 -999 -999 -999
0.28140064 0.91439998 0.02727746 -3.647791445E-01 7.004514771E+02 -6.024798529E-18 2.639045715E+02 0.000000000E+00 -999 -999 -999
0.27843962 0.91439998 0.02748046 -3.761391044E-01 7.059383545E+02 -2.941289856E-18 2.638659973E+02 0.000000000E+00 -999 -999 -999
0.27843962 0.91439998 0.02748046 -3.761391044E-01 7.059383545E+02 -2.941289856E-18 2.638659973E+02 0.000000000E+00 -999 -999 -999
0.27548962 0.91439998 0.02767846 -3.761391044E-01 7.059383545E+02 -2.941289856E-18 2.638238220E+02 0.000000000E+00 -999 -999 -999
0.27548962 0.91439998 0.02767846 -3.761391044E-01 7.059383545E+02 -2.941289856E-18 2.638238220E+02 0.000000000E+00 -999 -999 -999
0.27254862 0.91439998 0.02787246 -3.877934515E-01 7.114959106E+02 9.837713826E-19 2.637883301E+02 0.000000000E+00 -999 -999 -999
0.27254862 0.91439998 0.02787246 -3.877934515E-01 7.114959106E+02 9.837713826E-19 2.637883301E+02 0.000000000E+00 -999 -999 -999
0.26961863 0.91439998 0.02806247 -3.877934515E-01 7.114959106E+02 9.837713826E-19 2.637570190E+02 0.000000000E+00 -999 -999 -999
0.26961863 0.91439998 0.02806247 -3.877934515E-01 7.114959106E+02 9.837713826E-19 2.637570190E+02 0.000000000E+00 -999 -999 -999
0.26669965 0.91439998 0.02824846 -3.997624815E-01 7.171234131E+02 9.154257292E-18 2.637252197E+02 0.000000000E+00 -999 -999 -999
0.26669965 0.91439998 0.02824846 -3.997624815E-01 7.171234131E+02 9.154257292E-18 2.637252197E+02 0.000000000E+00 -999 -999 -999
0.26379062 0.91439998 0.02843046 -3.997624815E-01 7.171234131E+02 9.154257292E-18 2.636935120E+02 0.000000000E+00 -999 -999 -999
0.26379062 0.91439998 0.02843046 -3.997624815E-01 7.171234131E+02 9.154257292E-18 2.636935120E+02 0.000000000E+00 -999 -999 -999
0.26089263 0.91439998 0.02860846 -4.120461047E-01 7.228473511E+02 -5.739663168E-18 2.636619568E+02 0.000000000E+00 -999 -999 -999
0.26089263 0.91439998 0.02860846 -4.120461047E-01 7.228473511E+02 -5.739663168E-18 2.636619568E+02 0.000000000E+00 -999 -999 -999
0.25800565 0.91439998 0.02878146 -4.120461047E-01 7.228473511E+02 -5.739663168E-18 2.636331787E+02 0.000000000E+00 -999 -999 -999
0.25800565 0.91439998 0.02878146 -4.120461047E-01 7.228473511E+02 -5.739663168E-18 2.636331787E+02 0.000000000E+00 -999 -999 -999
0.25512961 0.91439998 0.02895046 -4.120461047E-01 7.228473511E+02 -5.739663168E-18 2.636097717E+02 0.000000000E+00 -999 -999 -999
0.25512961 0.91439998 0.02895046 -4.120461047E-01 7.228473511E+02 -5.739663168E-18 2.636097717E+02 0.000000000E+00 -999 -999 -999
0.25226465 0.91439998 0.02911546 -4.244914353E-01 7.286626587E+02 1.791643842E-18 2.635897217E+02 0.000000000E+00 -999 -999 -999
0.25226465 0.91439998 0.02911546 -4.244914353E-01 7.286626587E+02 1.791643842E-18 2.635897217E+02 0.000000000E+00 -999 -999 -999
0.24941062 0.91439998 0.02927646 -4.244914353E-01 7.286626587E+02 1.791643842E-18 2.635617676E+02 0.000000000E+00 -999 -999 -999
0.24941062 0.91439998 0.02927646 -4.244914353E-01 7.286626587E+02 1.791643842E-18 2.635617676E+02 0.000000000E+00 -999 -999 -999
0.24656763 0.91439998 0.02943246 -4.369995892E-01 7.345421143E+02 -5.360655112E-19 2.635286255E+02 0.000000000E+00 -999 -999 -999
0.24656763 0.91439998 0.02943246 -4.369995892E-01 7.345421143E+02 -5.360655112E-19 2.635286255E+02 0.000000000E+00 -999 -999 -999
0.24373663 0.91439998 0.02958446 -4.369995892E-01 7.345421143E+02 -5.360655112E-19 2.634955444E+02 0.000000000E+00 -999 -999 -999
0.24373663 0.91439998 0.02958446 -4.369995892E-01 7.345421143E+02 -5.360655112E-19 2.634955444E+02 0.000000000E+00 -999 -999 -999
0.24091663 0.91439998 0.02973246 -4.495172203E-01 7.404798584E+02 7.382489256E-19 2.634620667E+02 0.000000000E+00 -999 -999 -999
0.24091663 0.91439998 0.02973246 -4.495172203E-01 7.404798584E+02 7.382489256E-19 2.634620667E+02 0.000000000E+00 -999 -999 -999
0.23810863 0.91439998 0.02987546 -4.495172203E-01 7.404798584E+02 7.382489256E-19 2.634288330E+02 0.000000000E+00 -999 -999 -999
0.23810863 0.91439998 0.02987546 -4.495172203E-01 7.404798584E+02 7.382489256E-19 2.634288330E+02 0.000000000E+00 -999 -999 -999
0.23531263 0.91439998 0.03001446 -4.620625377E-01 7.464660645E+02 -1.953652335E-18 2.633948059E+02 0.000000000E+00 -999 -999 -999
0.23531263 0.91439998 0.03001446 -4.620625377E-01 7.464660645E+02 -1.953652335E-18 2.633948059E+02 0.000000000E+00 -999 -999 -999
0.23252764 0.91439998 0.03014846 -4.749152064E-01 7.525287476E+02 -6.942105536E-19 2.633600159E+02 0.000000000E+00 -999 -999 -999
0.23252764 0.91439998 0.03014846 -4.749152064E-01 7.525287476E+02 -6.942105536E-19 2.633600159E+02 0.000000000E+00 -999 -999 -999
0.22975564 0.91439998 0.03027846 -4.749152064E-01 7.525287476E+02 -6.942105536E-19 2.633217773E+02 0.000000000E+00 -999 -999 -999
0.22975564 0.91439998 0.03027846 -4.749152064E-01 7.525287476E+02 -6.942105536E-19 2.633217773E+02 0.000000000E+00 -999 -999 -999
0.22699464 0.91439998 0.03040446 -4.881477058E-01 7.587165527E+02 -5.749121565E-18 2.632777710E+02 0.000000000E+00 -999 -999 -999
0.22699464 0.91439998 0.03040446 -4.881477058E-01 7.587165527E+02 -5.749121565E-18 2.632777710E+02 0.000000000E+00 -999 -999 -999
0.22424662 0.91439998 0.03052546 -4.881477058E-01 7.587165527E+02 -5.749121565E-18 2.632323608E+02 0.000000000E+00 -999 -999 -999
0.22424662 0.91439998 0.03052546 -4.881477058E-01 7.587165527E+02 -5.749121565E-18 2.632323608E+02 0.000000000E+00 -999 -999 -999
0.22151065 0.91439998 0.03064146 -4.881477058E-01 7.587165527E+02 -5.749121565E-18 2.632012329E+02 0.000000000E+00 -999 -999 -999
0.22151065 0.91439998 0.03064146 -4.881477058E-01 7.587165527E+02 -5.749121565E-18 2.632012329E+02 0.000000000E+00 -999 -999 -999
0.21878663 0.91439998 0.03075346 -5.019664764E-01 7.650892334E+02 -1.548552934E-18 2.631783752E+02 0.000000000E+00 -999 -999 -999
0.21878663 0.91439998 0.03075346 -5.019664764E-01 7.650892334E+02 -1.548552934E-18 2.631783752E+02 0.000000000E+00 -999 -999 -999
0.21607563 0.91439998 0.03086046 -5.019664764E-01 7.650892334E+02 -1.548552934E-18 2.631466064E+02 0.000000000E+00 -999 -999 -999
0.21607563 0.91439998 0.03086046 -5.019664764E-01 7.650892334E+02 -1.548552934E-18 2.631466064E+02 0.000000000E+00 -999 -999 -999
0.21337764 0.91439998 0.03096346 -5.164616108E-01 7.716531982E+02 4.643916036E-19 2.631094666E+02 0.000000000E+00 -999 -999 -999
0.21337764 0.91439998 0.03096346 -5.164616108E-01 7.716531982E+02 4.643916036E-19 2.631094666E+02 0.000000000E+00 -999 -999 -999
0.21069163 0.91439998 0.03106146 -5.164616108E-01 7.716531982E+02 4.643916036E-19 2.630750122E+02 0.000000000E+00 -999 -999 -999
0.21069163 0.91439998 0.03106146 -5.164616108E-01 7.716531982E+02 4.643916036E-19 2.630750122E+02 0.000000000E+00 -999 -999 -999
0.20801964 0.91439998 0.03115447 -5.314650536E-01 7.784436646E+02 -4.349012086E-18 2.630468445E+02 0.000000000E+00 -999 -999 -999
0.20801964 0.91439998 0.03115447 -5.314650536E-01 7.784436646E+02 -4.349012086E-18 2.630468445E+02 0.000000000E+00 -999 -999 -999
0.20535963 0.91439998 0.03124346 -5.314650536E-01 7.784436646E+02 -4.349012086E-18 2.630224609E+02 0.000000000E+00 -999 -999 -999
0.20535963 0.91439998 0.03124346 -5.314650536E-01 7.784436646E+02 -4.349012086E-18 2.630224609E+02 0.000000000E+00 -999 -999 -999
0.20271263 0.91439998 0.03132746 -5.314650536E-01 7.784436646E+02 -4.349012086E-18 2.629884949E+02 0.000000000E+00 -999 -999 -999
0.20271263 0.91439998 0.03132746 -5.314650536E-01 7.784436646E+02 -4.349012086E-18 2.629884949E+02 0.000000000E+00 -999 -999 -999
0.20007862 0.91439998 0.03140647 -5.468409657E-01 7.854204712E+02 -9.995319650E-18 2.629490356E+02 0.000000000E+00 -999 -999 -999