#+++++++++++++++++++++++++++++++++++++++++++++++++++++++++++++++++++++++++++++++++++++++++++++++++++++++++++++++++++++++++++++++++
#
#   IPW-3 Cut/Slice DATA SUBMITTAL FORM for Test Case NACA0012_AE3932, May 18th 2026
#
#       NOMENCLATURE:
#                  X [m]:  X-coordinate of the surface (clean for reference)
#                  Y [m]:  Y-coordinate of the surface (clean for reference)
#                  Z [m]:  Z-coordinate of the surface (clean for reference)
#                 Cp [-]:  Pressure coefficient
#            HTC [W/m2K]:  Convective Heat Transfer Coefficient (on the rough surface)
#               Beta [-]:  Collection efficiency
#                 Ts [K]:  Surface temperature
#                 FF [-]:  Freezing fraction
#                  k [m]:  Surface roughness height if variable (OPTIONAL)
#         RhoIce [kg/m3]:  Ice density (OPTIONAL)
#      HTC_CLEAN [W/m2K]:  Convective Heat Transfer Coefficient on the surface without roughness (OPTIONAL)
#
#                XXmm:  Roughness height used for the case, in mm.
#                       In the zone name, use the format KS_XXmm.
#                       For example, if k_s = 1.5 mm, use KS_1p5mm. 
#                       For Variable roughness, use KS_VAR
#
#    FLOW CONDITIONS:
#                                   AOA: 4.0 deg
#                           Mach Number: 0.3151 [-]
#       Mean aerodynamic chord (M.A.C.): 0.5334 [m]
#                       Reynolds Number: 3.9795 million (based on MAC)
#                       Freestream Temp: 262.305 [K]
#                        Reference area: 0.97548 [m2]
#               Moment Reference Center: 0.13335, 0, 0 [m] (X, Y, Z)
#
#    ICING CONDITIONS:
#                           Icing Time: 420 [s]
#                                  LWC: 0.55 [g/m3]
#                                  MVD: 20 [μm]
#
#              NOTES: 1. Please use at least 5 decimal places in the numerical values
#                     2. If data are NOT provided, please fill data fields with a numerical value of "-999" 
#
#++++++++++++++++++++++++++++++++++++++++++++++++++++++++++++++++++++++++++++++++++++++++++++++++++++++++++++++++++++

                                                    <- Optional ->                 
VARIABLES = "X" "Y" "Z" "Cp" "HTC" "Beta" "Ts" "FF" "k" "RhoIce" "HTC_CLEAN"

ZONE T="SLICE_Y_0p9144_BINS01_KS_1mm_CUTDATA"
0.53339962 0.91439998 0.00068246 1.910079122E-01 3.924507141E+02 2.994407466E-18 2.632742310E+02 0.000000000E+00 -999 -999 -999
0.53003467 0.91439998 0.00115247 1.889374554E-01 3.948589172E+02 2.029172891E-18 2.632322388E+02 0.000000000E+00 -999 -999 -999
0.53003467 0.91439998 0.00115247 1.889374554E-01 3.948589172E+02 2.029172891E-18 2.632322388E+02 0.000000000E+00 -999 -999 -999
0.52666963 0.91439998 0.00161946 1.727226228E-01 3.945430603E+02 -9.750191138E-20 2.631656494E+02 0.000000000E+00 -999 -999 -999
0.52666963 0.91439998 0.00161946 1.727226228E-01 3.945430603E+02 -9.750191138E-20 2.631656494E+02 0.000000000E+00 -999 -999 -999
0.52330564 0.91439998 0.00208246 1.505058706E-01 3.922283325E+02 -9.063954605E-19 2.630829773E+02 0.000000000E+00 -999 -999 -999
0.52330564 0.91439998 0.00208246 1.505058706E-01 3.922283325E+02 -9.063954605E-19 2.630829773E+02 0.000000000E+00 -999 -999 -999
0.51994163 0.91439998 0.00254146 1.303451657E-01 4.052028198E+02 4.967803128E-20 2.630014038E+02 0.000000000E+00 -999 -999 -999
0.51994163 0.91439998 0.00254146 1.303451657E-01 4.052028198E+02 4.967803128E-20 2.630014038E+02 0.000000000E+00 -999 -999 -999
0.51657766 0.91439998 0.00299746 1.184034273E-01 4.135520325E+02 9.422512585E-20 2.629284668E+02 0.000000000E+00 -999 -999 -999
0.51657766 0.91439998 0.00299746 1.184034273E-01 4.135520325E+02 9.422512585E-20 2.629284668E+02 0.000000000E+00 -999 -999 -999
0.51321467 0.91439998 0.00345047 1.073043272E-01 4.213601379E+02 4.236771276E-20 2.628583984E+02 0.000000000E+00 -999 -999 -999
0.51321467 0.91439998 0.00345047 1.073043272E-01 4.213601379E+02 4.236771276E-20 2.628583984E+02 0.000000000E+00 -999 -999 -999
0.50985263 0.91439998 0.00389846 9.177644551E-02 4.321751099E+02 -1.377747117E-19 2.627911072E+02 0.000000000E+00 -999 -999 -999
0.50985263 0.91439998 0.00389846 9.177644551E-02 4.321751099E+02 -1.377747117E-19 2.627911072E+02 0.000000000E+00 -999 -999 -999
0.50649168 0.91439998 0.00434447 8.198519796E-02 4.389139404E+02 -2.170767755E-19 2.627287292E+02 0.000000000E+00 -999 -999 -999
0.50649168 0.91439998 0.00434447 8.198519796E-02 4.389139404E+02 -2.170767755E-19 2.627287292E+02 0.000000000E+00 -999 -999 -999
0.50313162 0.91439998 0.00478546 6.800427288E-02 4.484653625E+02 -5.088901465E-19 2.626714783E+02 0.000000000E+00 -999 -999 -999
0.50313162 0.91439998 0.00478546 6.800427288E-02 4.484653625E+02 -5.088901465E-19 2.626714783E+02 0.000000000E+00 -999 -999 -999
0.49977263 0.91439998 0.00522446 5.919987708E-02 4.545251160E+02 -9.472599405E-19 2.626185303E+02 0.000000000E+00 -999 -999 -999
0.49977263 0.91439998 0.00522446 5.919987708E-02 4.545251160E+02 -9.472599405E-19 2.626185303E+02 0.000000000E+00 -999 -999 -999
0.49641565 0.91439998 0.00565946 5.084159970E-02 4.603745117E+02 -7.137683086E-19 2.625656433E+02 0.000000000E+00 -999 -999 -999
0.49641565 0.91439998 0.00565946 5.084159970E-02 4.603745117E+02 -7.137683086E-19 2.625656433E+02 0.000000000E+00 -999 -999 -999
0.49305963 0.91439998 0.00609046 3.892529383E-02 4.687749939E+02 1.115199525E-18 2.625131836E+02 0.000000000E+00 -999 -999 -999
0.49305963 0.91439998 0.00609046 3.892529383E-02 4.687749939E+02 1.115199525E-18 2.625131836E+02 0.000000000E+00 -999 -999 -999
0.48970464 0.91439998 0.00651846 3.108046763E-02 4.741378479E+02 1.153294915E-18 2.624621582E+02 0.000000000E+00 -999 -999 -999
0.48970464 0.91439998 0.00651846 3.108046763E-02 4.741378479E+02 1.153294915E-18 2.624621582E+02 0.000000000E+00 -999 -999 -999
0.48635164 0.91439998 0.00694346 1.930958405E-02 4.818715210E+02 2.278178192E-19 2.624119568E+02 0.000000000E+00 -999 -999 -999
0.48635164 0.91439998 0.00694346 1.930958405E-02 4.818715210E+02 2.278178192E-19 2.624119568E+02 0.000000000E+00 -999 -999 -999
0.48300164 0.91439998 0.00736546 1.167835202E-02 4.868633728E+02 -1.089666217E-19 2.623637085E+02 0.000000000E+00 -999 -999 -999
0.48300164 0.91439998 0.00736546 1.167835202E-02 4.868633728E+02 -1.089666217E-19 2.623637085E+02 0.000000000E+00 -999 -999 -999
0.47965263 0.91439998 0.00778346 4.323556088E-03 4.917427979E+02 -1.252464409E-19 2.623186035E+02 0.000000000E+00 -999 -999 -999
0.47965263 0.91439998 0.00778346 4.323556088E-03 4.917427979E+02 -1.252464409E-19 2.623186035E+02 0.000000000E+00 -999 -999 -999
0.47630562 0.91439998 0.00819846 -6.264803465E-03 4.988643188E+02 7.757253256E-19 2.622761536E+02 0.000000000E+00 -999 -999 -999
0.47630562 0.91439998 0.00819846 -6.264803465E-03 4.988643188E+02 7.757253256E-19 2.622761536E+02 0.000000000E+00 -999 -999 -999
0.47296164 0.91439998 0.00860946 -1.313848421E-02 5.034973145E+02 3.497297141E-19 2.622327881E+02 0.000000000E+00 -999 -999 -999
0.47296164 0.91439998 0.00860946 -1.313848421E-02 5.034973145E+02 3.497297141E-19 2.622327881E+02 0.000000000E+00 -999 -999 -999
0.46961963 0.91439998 0.00901746 -2.328300849E-02 5.103097229E+02 -4.796916532E-19 2.621891174E+02 0.000000000E+00 -999 -999 -999
0.46961963 0.91439998 0.00901746 -2.328300849E-02 5.103097229E+02 -4.796916532E-19 2.621891174E+02 0.000000000E+00 -999 -999 -999
0.46627966 0.91439998 0.00942246 -2.989277616E-02 5.147706299E+02 3.732783829E-19 2.621472473E+02 0.000000000E+00 -999 -999 -999
0.46627966 0.91439998 0.00942246 -2.989277616E-02 5.147706299E+02 3.732783829E-19 2.621472473E+02 0.000000000E+00 -999 -999 -999
0.46294261 0.91439998 0.00982446 -3.942231834E-02 5.213054199E+02 9.059689455E-19 2.621080933E+02 0.000000000E+00 -999 -999 -999
0.46294261 0.91439998 0.00982446 -3.942231834E-02 5.213054199E+02 9.059689455E-19 2.621080933E+02 0.000000000E+00 -999 -999 -999
0.45960864 0.91439998 0.01022346 -4.546478018E-02 5.255137939E+02 6.751512266E-19 2.620715027E+02 0.000000000E+00 -999 -999 -999
0.45960864 0.91439998 0.01022346 -4.546478018E-02 5.255137939E+02 6.751512266E-19 2.620715027E+02 0.000000000E+00 -999 -999 -999
0.45627764 0.91439998 0.01061846 -5.135703832E-02 5.295844727E+02 4.811057895E-20 2.620347595E+02 0.000000000E+00 -999 -999 -999
0.45627764 0.91439998 0.01061846 -5.135703832E-02 5.295844727E+02 4.811057895E-20 2.620347595E+02 0.000000000E+00 -999 -999 -999
0.45294963 0.91439998 0.01101046 -6.013301015E-02 5.355103760E+02 6.041605702E-19 2.619986267E+02 0.000000000E+00 -999 -999 -999
0.45294963 0.91439998 0.01101046 -6.013301015E-02 5.355103760E+02 6.041605702E-19 2.619986267E+02 0.000000000E+00 -999 -999 -999
0.44962562 0.91439998 0.01139946 -6.597475708E-02 5.394269409E+02 8.681777517E-19 2.619632568E+02 0.000000000E+00 -999 -999 -999
0.44962562 0.91439998 0.01139946 -6.597475708E-02 5.394269409E+02 8.681777517E-19 2.619632568E+02 0.000000000E+00 -999 -999 -999
0.44630363 0.91439998 0.01178446 -7.189739496E-02 5.433377686E+02 5.561802690E-19 2.619259033E+02 0.000000000E+00 -999 -999 -999
0.44630363 0.91439998 0.01178446 -7.189739496E-02 5.433377686E+02 5.561802690E-19 2.619259033E+02 0.000000000E+00 -999 -999 -999
0.44298565 0.91439998 0.01216746 -8.095765859E-02 5.491811523E+02 2.365787475E-19 2.618873291E+02 0.000000000E+00 -999 -999 -999
0.44298565 0.91439998 0.01216746 -8.095765859E-02 5.491811523E+02 2.365787475E-19 2.618873291E+02 0.000000000E+00 -999 -999 -999
0.43967164 0.91439998 0.01254646 -8.689084649E-02 5.530654907E+02 6.604753882E-19 2.618498840E+02 0.000000000E+00 -999 -999 -999
0.43967164 0.91439998 0.01254646 -8.689084649E-02 5.530654907E+02 6.604753882E-19 2.618498840E+02 0.000000000E+00 -999 -999 -999
0.43636064 0.91439998 0.01292246 -9.258279204E-02 5.569272461E+02 1.285772000E-19 2.618148804E+02 0.000000000E+00 -999 -999 -999
0.43636064 0.91439998 0.01292246 -9.258279204E-02 5.569272461E+02 1.285772000E-19 2.618148804E+02 0.000000000E+00 -999 -999 -999
0.43305364 0.91439998 0.01329546 -1.006778926E-01 5.625986328E+02 -8.143181091E-19 2.617821655E+02 0.000000000E+00 -999 -999 -999
0.43305364 0.91439998 0.01329546 -1.006778926E-01 5.625986328E+02 -8.143181091E-19 2.617821655E+02 0.000000000E+00 -999 -999 -999
0.42975065 0.91439998 0.01366546 -1.059882641E-01 5.662380981E+02 -2.142622353E-21 2.617489929E+02 0.000000000E+00 -999 -999 -999
0.42975065 0.91439998 0.01366546 -1.059882641E-01 5.662380981E+02 -2.142622353E-21 2.617489929E+02 0.000000000E+00 -999 -999 -999
0.42645263 0.91439998 0.01403146 -1.113868579E-01 5.697673340E+02 -3.294879841E-19 2.617160339E+02 0.000000000E+00 -999 -999 -999
0.42645263 0.91439998 0.01403146 -1.113868579E-01 5.697673340E+02 -3.294879841E-19 2.617160339E+02 0.000000000E+00 -999 -999 -999
0.42315761 0.91439998 0.01439546 -1.194538176E-01 5.749650879E+02 -8.442825200E-19 2.616840210E+02 0.000000000E+00 -999 -999 -999
0.42315761 0.91439998 0.01439546 -1.194538176E-01 5.749650879E+02 -8.442825200E-19 2.616840210E+02 0.000000000E+00 -999 -999 -999
0.41986763 0.91439998 0.01475546 -1.247121915E-01 5.784062500E+02 -3.730652288E-19 2.616512146E+02 0.000000000E+00 -999 -999 -999
0.41986763 0.91439998 0.01475546 -1.247121915E-01 5.784062500E+02 -3.730652288E-19 2.616512146E+02 0.000000000E+00 -999 -999 -999
0.41658264 0.91439998 0.01511246 -1.299510747E-01 5.818521729E+02 3.251498677E-20 2.616188965E+02 0.000000000E+00 -999 -999 -999
0.41658264 0.91439998 0.01511246 -1.299510747E-01 5.818521729E+02 3.251498677E-20 2.616188965E+02 0.000000000E+00 -999 -999 -999
0.41330165 0.91439998 0.01546646 -1.378158480E-01 5.870983887E+02 -1.501596637E-20 2.615874939E+02 0.000000000E+00 -999 -999 -999
0.41330165 0.91439998 0.01546646 -1.378158480E-01 5.870983887E+02 -1.501596637E-20 2.615874939E+02 0.000000000E+00 -999 -999 -999
0.41002566 0.91439998 0.01581646 -1.430860758E-01 5.906287842E+02 3.075772363E-19 2.615552063E+02 0.000000000E+00 -999 -999 -999
0.41002566 0.91439998 0.01581646 -1.430860758E-01 5.906287842E+02 3.075772363E-19 2.615552063E+02 0.000000000E+00 -999 -999 -999
0.40675463 0.91439998 0.01616346 -1.483436525E-01 5.941333618E+02 9.081878963E-20 2.615240479E+02 0.000000000E+00 -999 -999 -999
0.40675463 0.91439998 0.01616346 -1.483436525E-01 5.941333618E+02 9.081878963E-20 2.615240479E+02 0.000000000E+00 -999 -999 -999
0.40348765 0.91439998 0.01650846 -1.559976339E-01 5.992634888E+02 -1.529461347E-19 2.614957886E+02 0.000000000E+00 -999 -999 -999
0.40348765 0.91439998 0.01650846 -1.559976339E-01 5.992634888E+02 -1.529461347E-19 2.614957886E+02 0.000000000E+00 -999 -999 -999
0.40022666 0.91439998 0.01684946 -1.610415578E-01 6.025836792E+02 2.495560223E-19 2.614681702E+02 0.000000000E+00 -999 -999 -999
0.40022666 0.91439998 0.01684946 -1.610415578E-01 6.025836792E+02 2.495560223E-19 2.614681702E+02 0.000000000E+00 -999 -999 -999
0.39697162 0.91439998 0.01718646 -1.661365479E-01 6.058659668E+02 1.185231428E-19 2.614389038E+02 0.000000000E+00 -999 -999 -999
0.39697162 0.91439998 0.01718646 -1.661365479E-01 6.058659668E+02 1.185231428E-19 2.614389038E+02 0.000000000E+00 -999 -999 -999
0.39372064 0.91439998 0.01752146 -1.711896509E-01 6.091499634E+02 3.309540907E-20 2.614077759E+02 0.000000000E+00 -999 -999 -999
0.39372064 0.91439998 0.01752146 -1.711896509E-01 6.091499634E+02 3.309540907E-20 2.614077759E+02 0.000000000E+00 -999 -999 -999
0.39047663 0.91439998 0.01785246 -1.785649806E-01 6.140747681E+02 4.702830941E-19 2.613772583E+02 0.000000000E+00 -999 -999 -999
0.39047663 0.91439998 0.01785246 -1.785649806E-01 6.140747681E+02 4.702830941E-19 2.613772583E+02 0.000000000E+00 -999 -999 -999
0.38723764 0.91439998 0.01818046 -1.833622605E-01 6.173561401E+02 1.745172473E-19 2.613481445E+02 0.000000000E+00 -999 -999 -999
0.38723764 0.91439998 0.01818046 -1.833622605E-01 6.173561401E+02 1.745172473E-19 2.613481445E+02 0.000000000E+00 -999 -999 -999
0.38400466 0.91439998 0.01850547 -1.881047785E-01 6.206364746E+02 -1.155400322E-19 2.613182373E+02 0.000000000E+00 -999 -999 -999
0.38400466 0.91439998 0.01850547 -1.881047785E-01 6.206364746E+02 -1.155400322E-19 2.613182373E+02 0.000000000E+00 -999 -999 -999
0.38077664 0.91439998 0.01882646 -1.929431409E-01 6.238916016E+02 -5.404546866E-19 2.612882690E+02 0.000000000E+00 -999 -999 -999
0.38077664 0.91439998 0.01882646 -1.929431409E-01 6.238916016E+02 -5.404546866E-19 2.612882690E+02 0.000000000E+00 -999 -999 -999
0.37755564 0.91439998 0.01914546 -2.004463673E-01 6.287423096E+02 -2.084995071E-19 2.612585754E+02 0.000000000E+00 -999 -999 -999
0.37755564 0.91439998 0.01914546 -2.004463673E-01 6.287423096E+02 -2.084995071E-19 2.612585754E+02 0.000000000E+00 -999 -999 -999
0.37434065 0.91439998 0.01946046 -2.053935826E-01 6.319875488E+02 -2.804119981E-20 2.612278748E+02 0.000000000E+00 -999 -999 -999
0.37434065 0.91439998 0.01946046 -2.053935826E-01 6.319875488E+02 -2.804119981E-20 2.612278748E+02 0.000000000E+00 -999 -999 -999
0.37113263 0.91439998 0.01977146 -2.103186250E-01 6.352223511E+02 1.315085807E-21 2.611979065E+02 0.000000000E+00 -999 -999 -999
0.37113263 0.91439998 0.01977146 -2.103186250E-01 6.352223511E+02 1.315085908E-21 2.611979065E+02 0.000000000E+00 -999 -999 -999
0.36792963 0.91439998 0.02008046 -2.178286761E-01 6.400661011E+02 6.961351444E-19 2.611696472E+02 0.000000000E+00 -999 -999 -999
0.36792963 0.91439998 0.02008046 -2.178286761E-01 6.400661011E+02 6.961351444E-19 2.611696472E+02 0.000000000E+00 -999 -999 -999
0.36473465 0.91439998 0.02038446 -2.228104770E-01 6.433252563E+02 4.972075129E-19 2.611405029E+02 0.000000000E+00 -999 -999 -999
0.36473465 0.91439998 0.02038446 -2.228104770E-01 6.433252563E+02 4.972075129E-19 2.611405029E+02 0.000000000E+00 -999 -999 -999
0.36154564 0.91439998 0.02068646 -2.278148085E-01 6.465947266E+02 3.564007448E-19 2.611095886E+02 0.000000000E+00 -999 -999 -999
0.36154564 0.91439998 0.02068646 -2.278148085E-01 6.465947266E+02 3.564007448E-19 2.611095886E+02 0.000000000E+00 -999 -999 -999
0.35836362 0.91439998 0.02098446 -2.328928113E-01 6.498704224E+02 7.615150089E-20 2.610794678E+02 0.000000000E+00 -999 -999 -999
0.35836362 0.91439998 0.02098446 -2.328928113E-01 6.498704224E+02 7.615150089E-20 2.610794678E+02 0.000000000E+00 -999 -999 -999
0.35518863 0.91439998 0.02127946 -2.403482199E-01 6.548270264E+02 1.784435764E-19 2.610519409E+02 0.000000000E+00 -999 -999 -999
0.35518863 0.91439998 0.02127946 -2.403482199E-01 6.548270264E+02 1.784435764E-19 2.610519409E+02 0.000000000E+00 -999 -999 -999
0.35202065 0.91439998 0.02157046 -2.427785695E-01 6.564821167E+02 1.552904809E-19 2.610250854E+02 0.000000000E+00 -999 -999 -999
0.35202065 0.91439998 0.02157046 -2.427785695E-01 6.564821167E+02 1.552904809E-19 2.610250854E+02 0.000000000E+00 -999 -999 -999
0.34885962 0.91439998 0.02185846 -2.501231134E-01 6.614411621E+02 -1.112023100E-19 2.609966125E+02 0.000000000E+00 -999 -999 -999
0.34885962 0.91439998 0.02185846 -2.501231134E-01 6.614411621E+02 -1.112023100E-19 2.609966125E+02 0.000000000E+00 -999 -999 -999
0.34570663 0.91439998 0.02214346 -2.550273836E-01 6.647777710E+02 -1.634714652E-19 2.609660950E+02 0.000000000E+00 -999 -999 -999
0.34570663 0.91439998 0.02214346 -2.550273836E-01 6.647777710E+02 -1.634714652E-19 2.609660950E+02 0.000000000E+00 -999 -999 -999
0.34256064 0.91439998 0.02242446 -2.599647343E-01 6.681364746E+02 -6.338873735E-19 2.609358826E+02 0.000000000E+00 -999 -999 -999
0.34256064 0.91439998 0.02242446 -2.599647343E-01 6.681364746E+02 -6.338873735E-19 2.609358826E+02 0.000000000E+00 -999 -999 -999
0.33942162 0.91439998 0.02270146 -2.678473294E-01 6.731834717E+02 -4.813748106E-19 2.609071045E+02 0.000000000E+00 -999 -999 -999
0.33942162 0.91439998 0.02270146 -2.678473294E-01 6.731834717E+02 -4.813748106E-19 2.609071045E+02 0.000000000E+00 -999 -999 -999
0.33629165 0.91439998 0.02297646 -2.732926011E-01 6.766041260E+02 -2.612234306E-19 2.608778076E+02 0.000000000E+00 -999 -999 -999
0.33629165 0.91439998 0.02297646 -2.732926011E-01 6.766041260E+02 -2.612234306E-19 2.608778076E+02 0.000000000E+00 -999 -999 -999
0.33316866 0.91439998 0.02324647 -2.786288857E-01 6.800899658E+02 -8.568811787E-20 2.608467712E+02 0.000000000E+00 -999 -999 -999
0.33316866 0.91439998 0.02324647 -2.786288857E-01 6.800899658E+02 -8.568811787E-20 2.608467712E+02 0.000000000E+00 -999 -999 -999
0.33005361 0.91439998 0.02351346 -2.838625312E-01 6.836167603E+02 -7.641829895E-20 2.608144226E+02 0.000000000E+00 -999 -999 -999
0.33005361 0.91439998 0.02351346 -2.838625312E-01 6.836167603E+02 -7.641829895E-20 2.608144226E+02 0.000000000E+00 -999 -999 -999
0.32694664 0.91439998 0.02377646 -2.889890969E-01 6.871644287E+02 -1.383964801E-19 2.607836304E+02 0.000000000E+00 -999 -999 -999
0.32694664 0.91439998 0.02377646 -2.889890969E-01 6.871644287E+02 -1.383964801E-19 2.607836304E+02 0.000000000E+00 -999 -999 -999
0.32384864 0.91439998 0.02403646 -2.939359546E-01 6.906909180E+02 -4.964829543E-19 2.607560120E+02 0.000000000E+00 -999 -999 -999
0.32384864 0.91439998 0.02403646 -2.939359546E-01 6.906909180E+02 -4.964829543E-19 2.607560120E+02 0.000000000E+00 -999 -999 -999
0.32075862 0.91439998 0.02429246 -2.988632619E-01 6.941347046E+02 -4.128050534E-19 2.607290955E+02 0.000000000E+00 -999 -999 -999
0.32075862 0.91439998 0.02429246 -2.988632619E-01 6.941347046E+02 -4.128050534E-19 2.607290955E+02 0.000000000E+00 -999 -999 -999
0.31767662 0.91439998 0.02454446 -3.067416251E-01 6.992007446E+02 -3.167378997E-19 2.607007141E+02 0.000000000E+00 -999 -999 -999
0.31767662 0.91439998 0.02454446 -3.067416251E-01 6.992007446E+02 -3.167378997E-19 2.607007141E+02 0.000000000E+00 -999 -999 -999
0.31460364 0.91439998 0.02479346 -3.121293187E-01 7.026414185E+02 -4.836794392E-19 2.606701050E+02 0.000000000E+00 -999 -999 -999
0.31460364 0.91439998 0.02479346 -3.121293187E-01 7.026414185E+02 -4.836794392E-19 2.606701050E+02 0.000000000E+00 -999 -999 -999
0.31153862 0.91439998 0.02503846 -3.173524737E-01 7.061350708E+02 -2.488759764E-19 2.606382751E+02 0.000000000E+00 -999 -999 -999
0.31153862 0.91439998 0.02503846 -3.173524737E-01 7.061350708E+02 -2.488759764E-19 2.606382751E+02 0.000000000E+00 -999 -999 -999
0.30848362 0.91439998 0.02527946 -3.224868178E-01 7.096300659E+02 -6.947849271E-20 2.606089478E+02 0.000000000E+00 -999 -999 -999
0.30848362 0.91439998 0.02527946 -3.224868178E-01 7.096300659E+02 -6.947849271E-20 2.606089478E+02 0.000000000E+00 -999 -999 -999
0.30543663 0.91439998 0.02551746 -3.276117742E-01 7.131513062E+02 -1.073763670E-19 2.605826721E+02 0.000000000E+00 -999 -999 -999
0.30543663 0.91439998 0.02551746 -3.276117742E-01 7.131513062E+02 -1.073763670E-19 2.605826721E+02 0.000000000E+00 -999 -999 -999
0.30239964 0.91439998 0.02575046 -3.326466680E-01 7.167377319E+02 -1.328395922E-21 2.605547485E+02 0.000000000E+00 -999 -999 -999
0.30239964 0.91439998 0.02575046 -3.326466680E-01 7.167377319E+02 -1.328395922E-21 2.605547485E+02 0.000000000E+00 -999 -999 -999
0.29937065 0.91439998 0.02598047 -3.376852572E-01 7.203418579E+02 -5.104076094E-19 2.605248108E+02 0.000000000E+00 -999 -999 -999
0.29937065 0.91439998 0.02598047 -3.376852572E-01 7.203418579E+02 -5.104076094E-19 2.605248108E+02 0.000000000E+00 -999 -999 -999
0.29635162 0.91439998 0.02620646 -3.430068195E-01 7.239147339E+02 -2.844227449E-19 2.604955444E+02 0.000000000E+00 -999 -999 -999
0.29635162 0.91439998 0.02620646 -3.430068195E-01 7.239147339E+02 -2.844227449E-19 2.604955444E+02 0.000000000E+00 -999 -999 -999
0.29334264 0.91439998 0.02642846 -3.485740125E-01 7.275144653E+02 -3.535882015E-19 2.604664917E+02 0.000000000E+00 -999 -999 -999
0.29334264 0.91439998 0.02642846 -3.485740125E-01 7.275144653E+02 -3.535882015E-19 2.604664917E+02 0.000000000E+00 -999 -999 -999
0.29034162 0.91439998 0.02664646 -3.566796482E-01 7.330784912E+02 -2.428830884E-20 2.604374695E+02 0.000000000E+00 -999 -999 -999
0.29034162 0.91439998 0.02664646 -3.566796482E-01 7.330784912E+02 -2.428830884E-20 2.604374695E+02 0.000000000E+00 -999 -999 -999
0.28735163 0.91439998 0.02686146 -3.593419492E-01 7.349458618E+02 -2.404130657E-19 2.604085083E+02 0.000000000E+00 -999 -999 -999
0.28735163 0.91439998 0.02686146 -3.593419492E-01 7.349458618E+02 -2.404130657E-19 2.604085083E+02 0.000000000E+00 -999 -999 -999
0.28437061 0.91439998 0.02707146 -3.678754270E-01 7.404984741E+02 8.602765612E-20 2.603786011E+02 0.000000000E+00 -999 -999 -999
0.28437061 0.91439998 0.02707146 -3.678754270E-01 7.404984741E+02 8.602765612E-20 2.603786011E+02 0.000000000E+00 -999 -999 -999
0.28140064 0.91439998 0.02727746 -3.738905489E-01 7.442500000E+02 2.063779116E-20 2.603475342E+02 0.000000000E+00 -999 -999 -999
0.28140064 0.91439998 0.02727746 -3.738905489E-01 7.442500000E+02 2.063779116E-20 2.603475342E+02 0.000000000E+00 -999 -999 -999
0.27843962 0.91439998 0.02748046 -3.796905279E-01 7.481010132E+02 -1.077985716E-19 2.603164673E+02 0.000000000E+00 -999 -999 -999
0.27843962 0.91439998 0.02748046 -3.796905279E-01 7.481010132E+02 -1.077985716E-19 2.603164673E+02 0.000000000E+00 -999 -999 -999
0.27548962 0.91439998 0.02767846 -3.852875233E-01 7.519991455E+02 3.844221343E-19 2.602861023E+02 0.000000000E+00 -999 -999 -999
0.27548962 0.91439998 0.02767846 -3.852875233E-01 7.519991455E+02 3.844221343E-19 2.602861023E+02 0.000000000E+00 -999 -999 -999
0.27254862 0.91439998 0.02787246 -3.909787536E-01 7.559165649E+02 6.283683727E-19 2.602560425E+02 0.000000000E+00 -999 -999 -999
0.27254862 0.91439998 0.02787246 -3.909787536E-01 7.559165649E+02 6.283683727E-19 2.602560425E+02 0.000000000E+00 -999 -999 -999
0.26961863 0.91439998 0.02806247 -3.967397213E-01 7.598875732E+02 4.980601810E-19 2.602257996E+02 0.000000000E+00 -999 -999 -999
0.26961863 0.91439998 0.02806247 -3.967397213E-01 7.598875732E+02 4.980601810E-19 2.602257996E+02 0.000000000E+00 -999 -999 -999
0.26669965 0.91439998 0.02824846 -4.023235440E-01 7.638973389E+02 2.165904579E-19 2.601956787E+02 0.000000000E+00 -999 -999 -999
0.26669965 0.91439998 0.02824846 -4.023235440E-01 7.638973389E+02 2.165904579E-19 2.601956787E+02 0.000000000E+00 -999 -999 -999
0.26379062 0.91439998 0.02843046 -4.078311324E-01 7.678627319E+02 3.326532166E-19 2.601658020E+02 0.000000000E+00 -999 -999 -999
0.26379062 0.91439998 0.02843046 -4.078311324E-01 7.678627319E+02 3.326532166E-19 2.601658020E+02 0.000000000E+00 -999 -999 -999
0.26089263 0.91439998 0.02860846 -4.136356413E-01 7.717633057E+02 -2.072174030E-20 2.601353455E+02 0.000000000E+00 -999 -999 -999
0.26089263 0.91439998 0.02860846 -4.136356413E-01 7.717633057E+02 -2.072174030E-20 2.601353455E+02 0.000000000E+00 -999 -999 -999
0.25800565 0.91439998 0.02878146 -4.197670519E-01 7.757078247E+02 4.173520135E-19 2.601037292E+02 0.000000000E+00 -999 -999 -999
0.25800565 0.91439998 0.02878146 -4.197670519E-01 7.757078247E+02 4.173520135E-19 2.601037292E+02 0.000000000E+00 -999 -999 -999
0.25512961 0.91439998 0.02895046 -4.258337319E-01 7.797816162E+02 1.157318347E-19 2.600715332E+02 0.000000000E+00 -999 -999 -999
0.25512961 0.91439998 0.02895046 -4.258337319E-01 7.797816162E+02 1.157318347E-19 2.600715332E+02 0.000000000E+00 -999 -999 -999
0.25226465 0.91439998 0.02911546 -4.287682474E-01 7.818539429E+02 -9.433647212E-20 2.600396729E+02 0.000000000E+00 -999 -999 -999
0.25226465 0.91439998 0.02911546 -4.287682474E-01 7.818539429E+02 -9.433647212E-20 2.600396729E+02 0.000000000E+00 -999 -999 -999
0.24941062 0.91439998 0.02927646 -4.345999062E-01 7.860020752E+02 -8.884678717E-19 2.600078125E+02 0.000000000E+00 -999 -999 -999
0.24941062 0.91439998 0.02927646 -4.345999062E-01 7.860020752E+02 -8.884678717E-19 2.600078125E+02 0.000000000E+00 -999 -999 -999
0.24656763 0.91439998 0.02943246 -4.407416284E-01 7.901422119E+02 -2.689659446E-19 2.599749756E+02 0.000000000E+00 -999 -999 -999
0.24656763 0.91439998 0.02943246 -4.407416284E-01 7.901422119E+02 -2.689659446E-19 2.599749756E+02 0.000000000E+00 -999 -999 -999
0.24373663 0.91439998 0.02958446 -4.472140968E-01 7.943670044E+02 4.400538174E-20 2.599412231E+02 0.000000000E+00 -999 -999 -999
0.24373663 0.91439998 0.02958446 -4.472140968E-01 7.943670044E+02 4.400538174E-20 2.599412231E+02 0.000000000E+00 -999 -999 -999
0.24091663 0.91439998 0.02973246 -4.536069334E-01 7.987369995E+02 4.880675807E-19 2.599077454E+02 0.000000000E+00 -999 -999 -999
0.24091663 0.91439998 0.02973246 -4.536069334E-01 7.987369995E+02 4.880675807E-19 2.599077454E+02 0.000000000E+00 -999 -999 -999
0.23810863 0.91439998 0.02987546 -4.597463012E-01 8.031851807E+02 4.063976090E-19 2.598757324E+02 0.000000000E+00 -999 -999 -999
0.23810863 0.91439998 0.02987546 -4.597463012E-01 8.031851807E+02 4.063976090E-19 2.598757324E+02 0.000000000E+00 -999 -999 -999
0.23531263 0.91439998 0.03001446 -4.659791589E-01 8.076344604E+02 5.753134218E-19 2.598456421E+02 0.000000000E+00 -999 -999 -999
0.23531263 0.91439998 0.03001446 -4.659791589E-01 8.076344604E+02 5.753134218E-19 2.598456421E+02 0.000000000E+00 -999 -999 -999
0.23252764 0.91439998 0.03014846 -4.725710452E-01 8.121258545E+02 2.605222949E-20 2.598169861E+02 0.000000000E+00 -999 -999 -999
0.23252764 0.91439998 0.03014846 -4.725710452E-01 8.121258545E+02 2.605222949E-20 2.598169861E+02 0.000000000E+00 -999 -999 -999
0.22975564 0.91439998 0.03027846 -4.792235196E-01 8.167387695E+02 -6.479515764E-20 2.597866821E+02 0.000000000E+00 -999 -999 -999
0.22975564 0.91439998 0.03027846 -4.792235196E-01 8.167387695E+02 -6.479515764E-20 2.597866821E+02 0.000000000E+00 -999 -999 -999
0.22699464 0.91439998 0.03040446 -4.855344296E-01 8.214364014E+02 -1.232184009E-19 2.597536316E+02 0.000000000E+00 -999 -999 -999
0.22699464 0.91439998 0.03040446 -4.855344296E-01 8.214364014E+02 -1.232184009E-19 2.597536316E+02 0.000000000E+00 -999 -999 -999
0.22424662 0.91439998 0.03052546 -4.885906279E-01 8.237763062E+02 -1.333625820E-19 2.597202454E+02 0.000000000E+00 -999 -999 -999
0.22424662 0.91439998 0.03052546 -4.885906279E-01 8.237763062E+02 -1.333625820E-19 2.597202454E+02 0.000000000E+00 -999 -999 -999
0.22151065 0.91439998 0.03064146 -4.982091784E-01 8.306967163E+02 -4.593946572E-19 2.596871338E+02 0.000000000E+00 -999 -999 -999
0.22151065 0.91439998 0.03064146 -4.982091784E-01 8.306967163E+02 -4.593946572E-19 2.596871338E+02 0.000000000E+00 -999 -999 -999
0.21878663 0.91439998 0.03075346 -5.017099977E-01 8.330193481E+02 -4.025383203E-19 2.596546021E+02 0.000000000E+00 -999 -999 -999
0.21878663 0.91439998 0.03075346 -5.017099977E-01 8.330193481E+02 -4.025383203E-19 2.596546021E+02 0.000000000E+00 -999 -999 -999
0.21607563 0.91439998 0.03086046 -5.089362860E-01 8.378100586E+02 -2.826227482E-19 2.596233215E+02 0.000000000E+00 -999 -999 -999
0.21607563 0.91439998 0.03086046 -5.089362860E-01 8.378100586E+02 -2.826227482E-19 2.596233215E+02 0.000000000E+00 -999 -999 -999
0.21337764 0.91439998 0.03096346 -5.159406066E-01 8.428013306E+02 1.769829823E-19 2.595910950E+02 0.000000000E+00 -999 -999 -999
0.21337764 0.91439998 0.03096346 -5.159406066E-01 8.428013306E+02 1.769829823E-19 2.595910950E+02 0.000000000E+00 -999 -999 -999
0.21069163 0.91439998 0.03106146 -5.225014091E-01 8.478311768E+02 3.153523722E-19 2.595566406E+02 0.000000000E+00 -999 -999 -999
0.21069163 0.91439998 0.03106146 -5.225014091E-01 8.478311768E+02 3.153523722E-19 2.595566406E+02 0.000000000E+00 -999 -999 -999
0.20801964 0.91439998 0.03115447 -5.257428288E-01 8.503040161E+02 1.607891252E-19 2.595223389E+02 0.000000000E+00 -999 -999 -999
0.20801964 0.91439998 0.03115447 -5.257428288E-01 8.503040161E+02 1.607891252E-19 2.595223389E+02 0.000000000E+00 -999 -999 -999
0.20535963 0.91439998 0.03124346 -5.325272679E-01 8.551640015E+02 2.915153017E-19 2.594894104E+02 0.000000000E+00 -999 -999 -999
0.20535963 0.91439998 0.03124346 -5.325272679E-01 8.551640015E+02 2.915153017E-19 2.594894104E+02 0.000000000E+00 -999 -999 -999
0.20271263 0.91439998 0.03132746 -5.399439335E-01 8.600667725E+02 4.124448162E-19 2.594570923E+02 0.000000000E+00 -999 -999 -999
0.20271263 0.91439998 0.03132746 -5.399439335E-01 8.600667725E+02 4.124448162E-19 2.594570923E+02 0.000000000E+00 -999 -999 -999