#++++++++++++++++++++++++++++++++++++++++++++++++++++++++++++++++++++++++++++++++++++++++++++++++++++++++++++++++++++
#
#   IPW-3 Ice Shape DATA SUBMITTAL FORM for Test Case NACA0012_AE3932, May 18th 2026
#
#       NOMENCLATURE:
#             X_ICED [m]:  X-coordinate of the iced surface
#             Y_ICED [m]:  Y-coordinate of the iced surface
#             Z_ICED [m]:  Z-coordinate of the iced surface
#
#                XXmm:  Roughness height used for the case, in mm.
#                       In the zone name, use the format KS_XXmm.
#                       For example, if k_s = 1.5 mm, use KS_1p5mm. 
#                       For Variable roughness, use KS_VAR
#
#    FLOW CONDITIONS:
#                                   AOA: 4.0 deg
#                           Mach Number: 0.3151 [-]
#       Mean aerodynamic chord (M.A.C.): 0.5334 [m]
#                       Reynolds Number: 3.9795 million (based on MAC)
#                       Freestream Temp: 267.55 [K]
#                        Reference area: 0.97548 [m2]
#               Moment Reference Center: 0.13335, 0, 0 [m] (X, Y, Z)
#
#    ICING CONDITIONS:
#                           Icing Time: 420 [s]
#                                  LWC: 0.55 [g/m3]
#                                  MVD: 20 [μm]
#
#              NOTES: 1. Please use at least 5 decimal places in the numerical values
#                     2. If data are NOT provided, please fill data fields with a numerical value of "-999" 
#
#++++++++++++++++++++++++++++++++++++++++++++++++++++++++++++++++++++++++++++++++++++++++++++++++++++++++++++++++++++

AUXDATA NUM_LAYERS  = "5"
                                              
VARIABLES = "X_ICED" "Y_ICED" "Z_ICED"

ZONE T="SLICE_Y_0p9144_BINS01_KS_1mm_SINGLE_LAYER"
0.53339962 0.91445971 0.00068246
0.53338557 0.91445971 0.00068443
0.53003467 0.91445971 0.00115247
0.53002061 0.91445971 0.00115442
0.52666963 0.91445971 0.00161946
0.52665557 0.91445971 0.00162140
0.52330564 0.91445971 0.00208246
0.52329158 0.91445971 0.00208438
0.51994163 0.91445971 0.00254146
0.51992758 0.91445971 0.00254337
0.51657766 0.91445971 0.00299746
0.51656360 0.91445971 0.00299936
0.51321467 0.91445971 0.00345047
0.51320062 0.91445971 0.00345234
0.50985263 0.91445971 0.00389846
0.50983857 0.91445971 0.00390033
0.50649168 0.91445971 0.00434447
0.50647763 0.91445971 0.00434631
0.50313162 0.91445971 0.00478546
0.50311757 0.91445971 0.00478730
0.49977263 0.91445971 0.00522446
0.49975861 0.91445971 0.00522628
0.49641565 0.91445971 0.00565946
0.49640163 0.91445971 0.00566127
0.49305963 0.91445971 0.00609046
0.49304562 0.91445971 0.00609225
0.48970464 0.91445971 0.00651846
0.48969062 0.91445971 0.00652024
0.48635164 0.91445971 0.00694346
0.48633763 0.91445971 0.00694523
0.48300164 0.91445971 0.00736546
0.48298765 0.91445971 0.00736721
0.47965263 0.91445971 0.00778346
0.47963864 0.91445971 0.00778520
0.47630562 0.91445971 0.00819846
0.47629164 0.91445971 0.00820018
0.47296164 0.91445971 0.00860946
0.47294766 0.91445971 0.00861117
0.46961963 0.91445971 0.00901746
0.46960568 0.91445971 0.00901916
0.46627966 0.91445971 0.00942246
0.46626571 0.91445971 0.00942414
0.46294261 0.91445971 0.00982446
0.46292869 0.91445971 0.00982613
0.45960864 0.91445971 0.01022346
0.45959472 0.91445971 0.01022511
0.45627764 0.91445971 0.01061846
0.45626373 0.91445971 0.01062010
0.45294963 0.91445971 0.01101046
0.45293574 0.91445971 0.01101209
0.44962562 0.91445971 0.01139946
0.44961174 0.91445971 0.01140107
0.44630363 0.91445971 0.01178446
0.44628977 0.91445971 0.01178606
0.44298565 0.91445971 0.01216746
0.44297180 0.91445971 0.01216905
0.43967164 0.91445971 0.01254646
0.43965778 0.91445971 0.01254804
0.43636064 0.91445971 0.01292246
0.43634682 0.91445971 0.01292402
0.43305364 0.91445971 0.01329546
0.43303985 0.91445971 0.01329701
0.42975065 0.91445971 0.01366546
0.42973686 0.91445971 0.01366699
0.42645263 0.91445971 0.01403146
0.42643887 0.91445971 0.01403299
0.42315761 0.91445971 0.01439546
0.42314386 0.91445971 0.01439697
0.41986763 0.91445971 0.01475546
0.41985390 0.91445971 0.01475696
0.41658264 0.91445971 0.01511246
0.41656891 0.91445971 0.01511394
0.41330165 0.91445971 0.01546646
0.41328795 0.91445971 0.01546793
0.41002566 0.91445971 0.01581646
0.41001199 0.91445971 0.01581792
0.40675463 0.91445971 0.01616346
0.40674096 0.91445971 0.01616490
0.40348765 0.91445971 0.01650846
0.40347402 0.91445971 0.01650989
0.40022666 0.91445971 0.01684946
0.40021306 0.91445971 0.01685087
0.39697162 0.91445971 0.01718646
0.39695802 0.91445971 0.01718786
0.39372064 0.91445971 0.01752146
0.39370707 0.91445971 0.01752285
0.39047663 0.91445971 0.01785246
0.39046309 0.91445971 0.01785383
0.38723764 0.91445971 0.01818046
0.38722413 0.91445971 0.01818182
0.38400466 0.91445971 0.01850547
0.38399118 0.91445971 0.01850681
0.38077664 0.91445971 0.01882646
0.38076319 0.91445971 0.01882780
0.37755564 0.91445971 0.01914546
0.37754219 0.91445971 0.01914678
0.37434065 0.91445971 0.01946046
0.37432724 0.91445971 0.01946176
0.37113263 0.91445971 0.01977146
0.37111925 0.91445971 0.01977275
0.36792963 0.91445971 0.02008046
0.36791628 0.91445971 0.02008173
0.36473465 0.91445971 0.02038446
0.36472133 0.91445971 0.02038573
0.36154564 0.91445971 0.02068646
0.36153234 0.91445971 0.02068771
0.35836362 0.91445971 0.02098446
0.35835036 0.91445971 0.02098570
0.35518863 0.91445971 0.02127946
0.35517540 0.91445971 0.02128068
0.35202065 0.91445971 0.02157046
0.35200745 0.91445971 0.02157167
0.34885962 0.91445971 0.02185846
0.34884645 0.91445971 0.02185965
0.34570663 0.91445971 0.02214346
0.34569349 0.91445971 0.02214464
0.34256064 0.91445971 0.02242446
0.34254753 0.91445971 0.02242562
0.33942162 0.91445971 0.02270146
0.33940855 0.91445971 0.02270261
0.33629165 0.91445971 0.02297646
0.33627860 0.91445971 0.02297759
0.33316866 0.91445971 0.02324647
0.33315564 0.91445971 0.02324758
0.33005361 0.91445971 0.02351346
0.33004063 0.91445971 0.02351456
0.32694664 0.91445971 0.02377646
0.32693369 0.91445971 0.02377755
0.32384864 0.91445971 0.02403646
0.32383572 0.91445971 0.02403753
0.32075862 0.91445971 0.02429246
0.32074573 0.91445971 0.02429351
0.31767662 0.91445971 0.02454446
0.31766379 0.91445971 0.02454551
0.31460364 0.91445971 0.02479346
0.31459085 0.91445971 0.02479449
0.31153862 0.91445971 0.02503846
0.31152586 0.91445971 0.02503947
0.30848362 0.91445971 0.02527946
0.30847089 0.91445971 0.02528046
0.30543663 0.91445971 0.02551746
0.30542393 0.91445971 0.02551844
0.30239964 0.91445971 0.02575046
0.30238699 0.91445971 0.02575143
0.29937065 0.91445971 0.02598047
0.29935804 0.91445971 0.02598141
0.29635162 0.91445971 0.02620646
0.29633904 0.91445971 0.02620739
0.29334264 0.91445971 0.02642846
0.29333009 0.91445971 0.02642937
0.29034162 0.91445971 0.02664646
0.29032913 0.91445971 0.02664736
0.28735163 0.91445971 0.02686146
0.28733917 0.91445971 0.02686234
0.28437061 0.91445971 0.02707146
0.28435822 0.91445971 0.02707233
0.28140064 0.91445971 0.02727746
0.28138827 0.91445971 0.02727831
0.27843962 0.91445971 0.02748046
0.27842728 0.91445971 0.02748129
0.27548962 0.91445971 0.02767846
0.27547732 0.91445971 0.02767927
0.27254862 0.91445971 0.02787246
0.27253638 0.91445971 0.02787326
0.26961863 0.91445971 0.02806247
0.26960642 0.91445971 0.02806324
0.26669965 0.91445971 0.02824846
0.26668749 0.91445971 0.02824923
0.26379062 0.91445971 0.02843046
0.26377850 0.91445971 0.02843121
0.26089263 0.91445971 0.02860846
0.26088057 0.91445971 0.02860919
0.25800565 0.91445971 0.02878146
0.25799362 0.91445971 0.02878217
0.25512961 0.91445971 0.02895046
0.25511765 0.91445971 0.02895115
0.25226465 0.91445971 0.02911546
0.25225271 0.91445971 0.02911614
0.24941062 0.91445971 0.02927646
0.24939875 0.91445971 0.02927711
0.24656763 0.91445971 0.02943246
0.24655580 0.91445971 0.02943310
0.24373663 0.91445971 0.02958446
0.24372484 0.91445971 0.02958508
0.24091663 0.91445971 0.02973246
0.24090489 0.91445971 0.02973306
0.23810863 0.91445971 0.02987546
0.23809694 0.91445971 0.02987605
0.23531263 0.91445971 0.03001446
0.23530098 0.91445971 0.03001502
0.23252764 0.91445971 0.03014846
0.23251605 0.91445971 0.03014901
0.22975564 0.91445971 0.03027846
0.22974410 0.91445971 0.03027899
0.22699464 0.91445971 0.03040446
0.22698317 0.91445971 0.03040497
0.22424662 0.91445971 0.03052546
0.22423519 0.91445971 0.03052595
0.22151065 0.91445971 0.03064146
0.22149926 0.91445971 0.03064193
0.21878663 0.91445971 0.03075346
0.21877531 0.91445971 0.03075391
0.21607563 0.91445971 0.03086046
0.21606435 0.91445971 0.03086089
0.21337764 0.91445971 0.03096346
0.21336641 0.91445971 0.03096387
0.21069163 0.91445971 0.03106146
0.21068046 0.91445971 0.03106185
0.20801964 0.91445971 0.03115447
0.20800853 0.91445971 0.03115484
0.20535963 0.91445971 0.03124346
0.20534856 0.91445971 0.03124381
0.20271263 0.91445971 0.03132746
0.20270163 0.91445971 0.03132779
0.20007862 0.91445971 0.03140647
0.20006767 0.91445971 0.03140677
0.19745863 0.91445971 0.03148046
0.19744773 0.91445971 0.03148076
0.19485163 0.91445971 0.03155046
0.19484079 0.91445971 0.03155073
0.19225863 0.91445971 0.03161547
0.19224784 0.91445971 0.03161572
0.18967864 0.91445971 0.03167646
0.18966791 0.91445971 0.03167669
0.18711164 0.91445971 0.03173146
0.18710098 0.91445971 0.03173168
0.18455964 0.91445971 0.03178246
0.18454904 0.91445971 0.03178266
0.18202064 0.91445971 0.03182846
0.18201010 0.91445971 0.03182863
0.17949665 0.91445971 0.03186946
0.17948615 0.91445971 0.03186961
0.17698564 0.91445971 0.03190546
0.17697520 0.91445971 0.03190560
0.17448963 0.91445971 0.03193746
0.17447926 0.91445971 0.03193757
0.17200763 0.91445971 0.03196346
0.17199732 0.91445971 0.03196356
0.16953963 0.91445971 0.03198546
0.16952938 0.91445971 0.03198553
0.16708664 0.91445971 0.03200246
0.16707645 0.91445971 0.03200251
0.16464764 0.91445971 0.03201446
0.16463751 0.91445971 0.03201449
0.16222363 0.91445971 0.03202146
0.16221356 0.91445971 0.03202147
0.15981463 0.91445971 0.03202346
0.15980463 0.91445971 0.03202345
0.15742063 0.91445971 0.03202146
0.15741068 0.91445971 0.03202143
0.15504064 0.91445971 0.03201346
0.15503075 0.91445971 0.03201341
0.15267663 0.91445971 0.03200046
0.15266681 0.91445971 0.03200039
0.15032764 0.91445971 0.03198346
0.15031789 0.91445971 0.03198337
0.14799363 0.91445971 0.03196146
0.14798394 0.91445971 0.03196135
0.14567564 0.91445971 0.03193446
0.14566602 0.91445971 0.03193433
0.14337164 0.91445971 0.03190246
0.14336208 0.91445971 0.03190231
0.14108463 0.91445971 0.03186546
0.14107514 0.91445971 0.03186529
0.13881264 0.91445971 0.03182346
0.13880321 0.91445971 0.03182327
0.13655664 0.91445971 0.03177647
0.13654727 0.91445971 0.03177625
0.13431564 0.91445971 0.03172446
0.13430633 0.91445971 0.03172423
0.13209063 0.91445971 0.03166847
0.13208140 0.91445971 0.03166821
0.12988265 0.91445971 0.03160746
0.12987348 0.91445971 0.03160718
0.12768963 0.91445971 0.03154046
0.12768054 0.91445971 0.03154017
0.12551364 0.91445971 0.03146946
0.12550461 0.91445971 0.03146915
0.12335364 0.91445971 0.03139346
0.12334468 0.91445971 0.03139313
0.12120963 0.91445971 0.03131346
0.12120074 0.91445971 0.03131310
0.11908163 0.91445971 0.03122746
0.11907281 0.91445971 0.03122709
0.11697063 0.91445971 0.03113746
0.11696188 0.91445971 0.03113707
0.11487664 0.91445971 0.03104246
0.11486795 0.91445971 0.03104205
0.11279864 0.91445971 0.03094246
0.11279003 0.91445971 0.03094203
0.11073763 0.91445971 0.03083746
0.11072909 0.91445971 0.03083700
0.10869364 0.91445971 0.03072746
0.10868516 0.91445971 0.03072699
0.10666564 0.91445971 0.03061346
0.10665724 0.91445971 0.03061297
0.10465564 0.91445971 0.03049446
0.10464731 0.91445971 0.03049395
0.10266264 0.91445971 0.03037146
0.10265438 0.91445971 0.03037093
0.10068663 0.91445971 0.03024346
0.10067845 0.91445971 0.03024291
0.09872764 0.91445971 0.03011046
0.09871952 0.91445971 0.03010989
0.09678563 0.91445971 0.02997246
0.09677759 0.91445971 0.02997187
0.09486163 0.91445971 0.02983046
0.09485366 0.91445971 0.02982985
0.09295463 0.91445971 0.02968346
0.09294674 0.91445971 0.02968283
0.09106564 0.91445971 0.02953247
0.09105781 0.91445971 0.02953181
0.08919364 0.91445971 0.02937646
0.08918589 0.91445971 0.02937579
0.08733963 0.91445971 0.02921647
0.08733196 0.91445971 0.02921578
0.08550364 0.91445971 0.02905146
0.08549604 0.91445971 0.02905076
0.08368563 0.91445971 0.02888246
0.08367810 0.91445971 0.02888174
0.08188463 0.91445971 0.02870946
0.08187719 0.91445971 0.02870872
0.08010263 0.91445971 0.02853146
0.08009526 0.91445971 0.02853069
0.07833763 0.91445971 0.02834847
0.07833034 0.91445971 0.02834768
0.07659163 0.91445971 0.02816146
0.07658441 0.91445971 0.02816066
0.07486364 0.91445971 0.02797046
0.07485648 0.91445971 0.02796965
0.07315363 0.91445971 0.02777547
0.07314656 0.91445971 0.02777463
0.07146163 0.91445971 0.02757646
0.07145464 0.91445971 0.02757561
0.06978863 0.91445971 0.02737246
0.06978172 0.91445971 0.02737160
0.06813364 0.91445971 0.02716446
0.06812680 0.91445971 0.02716358
0.06649763 0.91445971 0.02695246
0.06649087 0.91445971 0.02695156
0.06487963 0.91445971 0.02673646
0.06487295 0.91445971 0.02673554
0.06328064 0.91445971 0.02651646
0.06327403 0.91445971 0.02651553
0.06170063 0.91445971 0.02629246
0.06169410 0.91445971 0.02629151
0.06013863 0.91445971 0.02606446
0.06013218 0.91445971 0.02606349
0.05859563 0.91445971 0.02583246
0.05858926 0.91445971 0.02583148
0.05707163 0.91445971 0.02559646
0.05706535 0.91445971 0.02559546
0.05556763 0.91445971 0.02535646
0.05556142 0.91445971 0.02535544
0.05408163 0.91445971 0.02511246
0.05407550 0.91445971 0.02511143
0.05261464 0.91445971 0.02486546
0.05260859 0.91445971 0.02486441
0.05116663 0.91445971 0.02461346
0.05116067 0.91445971 0.02461240
0.04973863 0.91445971 0.02435846
0.04973274 0.91445971 0.02435739
0.04832863 0.91445971 0.02410046
0.04832283 0.91445971 0.02409937
0.04693963 0.91445971 0.02383846
0.04693390 0.91445971 0.02383735
0.04556863 0.91445971 0.02357246
0.04556299 0.91445971 0.02357133
0.04421763 0.91445971 0.02330246
0.04421207 0.91445971 0.02330132
0.04288563 0.91445971 0.02302946
0.04288015 0.91445971 0.02302831
0.04157364 0.91445971 0.02275346
0.04156823 0.91445971 0.02275229
0.04028064 0.91445971 0.02247346
0.04027532 0.91445971 0.02247228
0.03900763 0.91445971 0.02219046
0.03900240 0.91445971 0.02218927
0.03775464 0.91445971 0.02190346
0.03774948 0.91445971 0.02190225
0.03652164 0.91445971 0.02161346
0.03651656 0.91445971 0.02161224
0.03530763 0.91445971 0.02132046
0.03530264 0.91445971 0.02131923
0.03411364 0.91445971 0.02102446
0.03410873 0.91445971 0.02102321
0.03293964 0.91445971 0.02072446
0.03293481 0.91445971 0.02072320
0.03178463 0.91445971 0.02042246
0.03177990 0.91445971 0.02042119
0.03065064 0.91445971 0.02011646
0.03064598 0.91445971 0.02011517
0.02953663 0.91445971 0.01980746
0.02953206 0.91445971 0.01980616
0.02844263 0.91445971 0.01949546
0.02843815 0.91445971 0.01949415
0.02736863 0.91445971 0.01918046
0.02736423 0.91445971 0.01917914
0.02631464 0.91445971 0.01886346
0.02631031 0.91445971 0.01886212
0.02528063 0.91445971 0.01854246
0.02527640 0.91445971 0.01854111
0.02426763 0.91445971 0.01821846
0.02426348 0.91445971 0.01821710
0.02327363 0.91445971 0.01789246
0.02326957 0.91445971 0.01789109
0.02230063 0.91445971 0.01756346
0.02229666 0.91445971 0.01756208
0.02134863 0.91445971 0.01723146
0.02134473 0.91445971 0.01723007
0.02041564 0.91445971 0.01689746
0.02041183 0.91445971 0.01689605
0.01950463 0.91445971 0.01655946
0.01950091 0.91445971 0.01655805
0.01861263 0.91445971 0.01622046
0.01860899 0.91445971 0.01621903
0.01774164 0.91445971 0.01587746
0.01773808 0.91445971 0.01587602
0.01689163 0.91445971 0.01553246
0.01688816 0.91445971 0.01553101
0.01606163 0.91445971 0.01518546
0.01605825 0.91445971 0.01518400
0.01525263 0.91445971 0.01483546
0.01524934 0.91445971 0.01483399
0.01446363 0.91445971 0.01448346
0.01446042 0.91445971 0.01448198
0.01369564 0.91445971 0.01412846
0.01369251 0.91445971 0.01412697
0.01294863 0.91445971 0.01377147
0.01294559 0.91445971 0.01376997
0.01222163 0.91445971 0.01341248
0.01221868 0.91445971 0.01341097
0.01151659 0.91445971 0.01305056
0.01151372 0.91445971 0.01304904
0.01083139 0.91445971 0.01268691
0.01082861 0.91445971 0.01268539
0.01016547 0.91445971 0.01232254
0.01016276 0.91445971 0.01232103
0.00951833 0.91445971 0.01196055
0.00951566 0.91445971 0.01195911
0.00887880 0.91445971 0.01161745
0.00887606 0.91445971 0.01161625
0.00822179 0.91445971 0.01133003
0.00821879 0.91445971 0.01132931
0.00750454 0.91445971 0.01115937
0.00750117 0.91445971 0.01115924
0.00669742 0.91445971 0.01112776
0.00669375 0.91445971 0.01112802
0.00582066 0.91445971 0.01118936
0.00581685 0.91445971 0.01118975
0.00490931 0.91445971 0.01128105
0.00490542 0.91445971 0.01128144
0.00397887 0.91445971 0.01137358
0.00397491 0.91445971 0.01137394
0.00303172 0.91445971 0.01146076
0.00302767 0.91445971 0.01146109
0.00206095 0.91445971 0.01153950
0.00205678 0.91445971 0.01153976
0.00106337 0.91445971 0.01160241
0.00105913 0.91445971 0.01160260
0.00004803 0.91445971 0.01164687
0.00004368 0.91445971 0.01164696
-0.00099416 0.91445971 0.01166909
-0.00099876 0.91445971 0.01166913
-0.00209468 0.91445971 0.01167678
-0.00209982 0.91445971 0.01167703
-0.00332511 0.91445971 0.01173702
-0.00333211 0.91445971 0.01173840
-0.00499972 0.91445971 0.01206693
-0.00501242 0.91445971 0.01207195
-0.00803871 0.91445971 0.01327036
-0.00806456 0.91445971 0.01328325
-0.01422418 0.91445971 0.01635448
-0.01426337 0.91445971 0.01637307
-0.02360259 0.91445971 0.02080338
-0.02362922 0.91445971 0.02081065
-0.02997420 0.91445971 0.02254364
-0.02997393 0.91445971 0.02253430
-0.02991099 0.91445971 0.02031047
-0.02990494 0.91445971 0.02029849
-0.02846286 0.91445971 0.01744555
-0.02845798 0.91445971 0.01743484
-0.02729587 0.91445971 0.01488124
-0.02729021 0.91445971 0.01487112
-0.02594180 0.91445971 0.01245877
-0.02593492 0.91445971 0.01244900
-0.02429505 0.91445971 0.01012100
-0.02428885 0.91445971 0.01011210
-0.02281000 0.91445971 0.00799291
-0.02280339 0.91445971 0.00798468
-0.02122854 0.91445971 0.00602356
-0.02122096 0.91445971 0.00601614
-0.01941503 0.91445971 0.00424994
-0.01940841 0.91445971 0.00424329
-0.01783284 0.91445971 0.00266028
-0.01782629 0.91445971 0.00265436
-0.01626657 0.91445971 0.00124393
-0.01625957 0.91445971 0.00123877
-0.01459345 0.91445971 0.00001046
-0.01458780 0.91445971 0.00000594
-0.01324099 0.91445971 -0.00107235
-0.01323621 0.91445971 -0.00107648
-0.01209694 0.91445971 -0.00205986
-0.01209203 0.91445971 -0.00206352
-0.01092071 0.91445971 -0.00293359
-0.01091549 0.91445971 -0.00293664
-0.00967237 0.91445971 -0.00366415
-0.00966702 0.91445971 -0.00366679
-0.00839225 0.91445971 -0.00429583
-0.00838777 0.91445971 -0.00429824
-0.00731973 0.91445971 -0.00487434
-0.00731559 0.91445971 -0.00487646
-0.00632884 0.91445971 -0.00538074
-0.00632459 0.91445971 -0.00538248
-0.00531352 0.91445971 -0.00579865
-0.00530975 0.91445971 -0.00580032
-0.00441172 0.91445971 -0.00619853
-0.00440802 0.91445971 -0.00619994
-0.00352652 0.91445971 -0.00653745
-0.00352253 0.91445971 -0.00653842
-0.00257348 0.91445971 -0.00677087
-0.00256987 0.91445971 -0.00677181
-0.00170924 0.91445971 -0.00699672
-0.00170641 0.91445971 -0.00699797
-0.00103102 0.91445971 -0.00729583
-0.00102881 0.91445971 -0.00729740
-0.00050220 0.91445971 -0.00767237
-0.00050063 0.91445971 -0.00767443
-0.00012838 0.91445971 -0.00816530
-0.00012761 0.91445971 -0.00816808
0.00005565 0.91445971 -0.00883026
0.00005611 0.91445971 -0.00883346
0.00016516 0.91445971 -0.00959709
0.00016580 0.91445971 -0.00960034
0.00031749 0.91445971 -0.01037537
0.00031836 0.91445971 -0.01037854
0.00052600 0.91445971 -0.01113472
0.00052709 0.91445971 -0.01113785
0.00078618 0.91445971 -0.01188238
0.00078748 0.91445971 -0.01188548
0.00109645 0.91445971 -0.01262459
0.00109790 0.91445971 -0.01262764
0.00144482 0.91445971 -0.01335546
0.00144642 0.91445971 -0.01335848
0.00182760 0.91445971 -0.01407734
0.00182935 0.91445971 -0.01408034
0.00224832 0.91445971 -0.01479433
0.00225021 0.91445971 -0.01479730
0.00270195 0.91445971 -0.01550472
0.00270397 0.91445971 -0.01550767
0.00318505 0.91445971 -0.01621143
0.00318717 0.91445971 -0.01621441
0.00369188 0.91445971 -0.01692461
0.00369403 0.91445971 -0.01692768
0.00420671 0.91445971 -0.01766065
0.00420892 0.91445971 -0.01766385
0.00473544 0.91445971 -0.01842612
0.00473780 0.91445971 -0.01842921
0.00529940 0.91445971 -0.01916577
0.00530198 0.91445971 -0.01916867
0.00591786 0.91445971 -0.01985875
0.00592057 0.91445971 -0.01986164
0.00656630 0.91445971 -0.02055200
0.00656901 0.91445971 -0.02055496
0.00721607 0.91445971 -0.02126190
0.00721895 0.91445971 -0.02126482
0.00790563 0.91445971 -0.02196177
0.00790868 0.91445971 -0.02196457
0.00863387 0.91445971 -0.02263165
0.00863697 0.91445971 -0.02263444
0.00937483 0.91445971 -0.02329971
0.00937808 0.91445971 -0.02330246
0.01015164 0.91445971 -0.02395690
0.01015502 0.91445971 -0.02395954
0.01095866 0.91445971 -0.02458764
0.01096210 0.91445971 -0.02459031
0.01178198 0.91445971 -0.02522640
0.01178551 0.91445971 -0.02522907
0.01262588 0.91445971 -0.02586620
0.01262949 0.91445971 -0.02586881
0.01349003 0.91445971 -0.02649014
0.01349380 0.91445971 -0.02649273
0.01439189 0.91445971 -0.02710848
0.01439572 0.91445971 -0.02711100
0.01530877 0.91445971 -0.02771183
0.01531269 0.91445971 -0.02771435
0.01624725 0.91445971 -0.02831278
0.01625129 0.91445971 -0.02831529
0.01721383 0.91445971 -0.02891207
0.01721793 0.91445971 -0.02891453
0.01819349 0.91445971 -0.02950186
0.01819775 0.91445971 -0.02950420
0.01921372 0.91445971 -0.03006195
0.01921810 0.91445971 -0.03006408
0.02026025 0.91445971 -0.03056983
0.02026488 0.91445971 -0.03057134
0.02136926 0.91445971 -0.03093323
0.02137465 0.91445971 -0.03093270
0.02265903 0.91445971 -0.03080481
0.02266587 0.91445971 -0.03079936
0.02429749 0.91445971 -0.02949923
0.02430587 0.91445971 -0.02948825
0.02630253 0.91445971 -0.02687361
0.02631015 0.91445971 -0.02686495
0.02812597 0.91445971 -0.02480169
0.02813150 0.91445971 -0.02480036
0.02945012 0.91445971 -0.02448329
0.02945520 0.91445971 -0.02448380
0.03066748 0.91445971 -0.02460688
0.03067265 0.91445971 -0.02460730
0.03190465 0.91445971 -0.02470733
0.03190987 0.91445971 -0.02470777
0.03315451 0.91445971 -0.02481382
0.03315981 0.91445971 -0.02481430
0.03442027 0.91445971 -0.02492697
0.03442562 0.91445971 -0.02492745
0.03569971 0.91445971 -0.02504208
0.03570511 0.91445971 -0.02504257
0.03699379 0.91445971 -0.02516031
0.03699927 0.91445971 -0.02516082
0.03830515 0.91445971 -0.02528233
0.03831069 0.91445971 -0.02528287
0.03963176 0.91445971 -0.02540964
0.03963738 0.91445971 -0.02541017
0.04097502 0.91445971 -0.02553694
0.04098071 0.91445971 -0.02553740
0.04233775 0.91445971 -0.02564695
0.04234352 0.91445971 -0.02564737
0.04371853 0.91445971 -0.02574746
0.04372437 0.91445971 -0.02574792
0.04511459 0.91445971 -0.02585707
0.04512050 0.91445971 -0.02585753
0.04652807 0.91445971 -0.02596870
0.04653404 0.91445971 -0.02596916
0.04795716 0.91445971 -0.02607883
0.04796321 0.91445971 -0.02607931
0.04940319 0.91445971 -0.02619312
0.04940930 0.91445971 -0.02619362
0.05086336 0.91445971 -0.02631271
0.05086954 0.91445971 -0.02631322
0.05234238 0.91445971 -0.02643482
0.05234863 0.91445971 -0.02643531
0.05383865 0.91445971 -0.02655276
0.05384498 0.91445971 -0.02655321
0.05535322 0.91445971 -0.02666001
0.05535962 0.91445971 -0.02666042
0.05688558 0.91445971 -0.02675898
0.05689205 0.91445971 -0.02675942
0.05843501 0.91445971 -0.02686408
0.05844155 0.91445971 -0.02686455
0.06000032 0.91445971 -0.02697711
0.06000693 0.91445971 -0.02697758
0.06158283 0.91445971 -0.02709039
0.06158952 0.91445971 -0.02709081
0.06318344 0.91445971 -0.02719140
0.06319020 0.91445971 -0.02719179
0.06480253 0.91445971 -0.02728436
0.06480936 0.91445971 -0.02728478
0.06643815 0.91445971 -0.02738370
0.06644505 0.91445971 -0.02738413
0.06808983 0.91445971 -0.02748675
0.06809681 0.91445971 -0.02748718
0.06975908 0.91445971 -0.02759019
0.06976613 0.91445971 -0.02759064
0.07144456 0.91445971 -0.02769810
0.07145167 0.91445971 -0.02769861
0.07314600 0.91445971 -0.02782049
0.07315317 0.91445971 -0.02782112
0.07486136 0.91445971 -0.02796981
0.07486858 0.91445971 -0.02797053
0.07659129 0.91445971 -0.02814371
0.07659859 0.91445971 -0.02814448
0.07833762 0.91445971 -0.02832765
0.07834500 0.91445971 -0.02832842
0.08010264 0.91445971 -0.02851054
0.08011009 0.91445971 -0.02851128
0.08188463 0.91445971 -0.02868854
0.08189216 0.91445971 -0.02868926
0.08368564 0.91445971 -0.02886154
0.08369324 0.91445971 -0.02886224
0.08550364 0.91445971 -0.02903054
0.08551131 0.91445971 -0.02903123
0.08733963 0.91445971 -0.02919554
0.08734738 0.91445971 -0.02919620
0.08919363 0.91445971 -0.02935554
0.08920146 0.91445971 -0.02935619
0.09106563 0.91445971 -0.02951154
0.09107353 0.91445971 -0.02951217
0.09295464 0.91445971 -0.02966254
0.09296260 0.91445971 -0.02966315
0.09486163 0.91445971 -0.02980954
0.09486967 0.91445971 -0.02981013
0.09678564 0.91445971 -0.02995154
0.09679375 0.91445971 -0.02995211
0.09872764 0.91445971 -0.03008953
0.09873583 0.91445971 -0.03009009
0.10068663 0.91445971 -0.03022254
0.10069489 0.91445971 -0.03022307
0.10266264 0.91445971 -0.03035054
0.10267097 0.91445971 -0.03035105
0.10465564 0.91445971 -0.03047354
0.10466404 0.91445971 -0.03047403
0.10666563 0.91445971 -0.03059254
0.10667411 0.91445971 -0.03059301
0.10869364 0.91445971 -0.03070654
0.10870218 0.91445971 -0.03070700
0.11073763 0.91445971 -0.03081654
0.11074625 0.91445971 -0.03081698
0.11279864 0.91445971 -0.03092154
0.11280733 0.91445971 -0.03092195
0.11487664 0.91445971 -0.03102154
0.11488539 0.91445971 -0.03102193
0.11697064 0.91445971 -0.03111654
0.11697946 0.91445971 -0.03111691
0.11908163 0.91445971 -0.03120654
0.11909052 0.91445971 -0.03120690
0.12120964 0.91445971 -0.03129254
0.12121860 0.91445971 -0.03129287
0.12335364 0.91445971 -0.03137254
0.12336267 0.91445971 -0.03137285
0.12551363 0.91445971 -0.03144854
0.12552273 0.91445971 -0.03144883
0.12768964 0.91445971 -0.03151954
0.12769880 0.91445971 -0.03151982
0.12988264 0.91445971 -0.03158654
0.12989188 0.91445971 -0.03158679
0.13209063 0.91445971 -0.03164754
0.13209992 0.91445971 -0.03164777
0.13431564 0.91445971 -0.03170354
0.13432500 0.91445971 -0.03170375
0.13655664 0.91445971 -0.03175554
0.13656606 0.91445971 -0.03175573
0.13881264 0.91445971 -0.03180254
0.13882214 0.91445971 -0.03180271
0.14108463 0.91445971 -0.03184453
0.14109419 0.91445971 -0.03184469
0.14337164 0.91445971 -0.03188154
0.14338126 0.91445971 -0.03188167
0.14567563 0.91445971 -0.03191354
0.14568532 0.91445971 -0.03191365
0.14799363 0.91445971 -0.03194054
0.14800339 0.91445971 -0.03194063
0.15032764 0.91445971 -0.03196254
0.15033746 0.91445971 -0.03196261
0.15267663 0.91445971 -0.03197953
0.15268651 0.91445971 -0.03197959
0.15504063 0.91445971 -0.03199254
0.15505058 0.91445971 -0.03199257
0.15742062 0.91445971 -0.03200053
0.15743063 0.91445971 -0.03200054
0.15981463 0.91445971 -0.03200254
0.15982469 0.91445971 -0.03200253
0.16222363 0.91445971 -0.03200053
0.16223375 0.91445971 -0.03200051
0.16464764 0.91445971 -0.03199353
0.16465784 0.91445971 -0.03199348
0.16708664 0.91445971 -0.03198154
0.16709690 0.91445971 -0.03198147
0.16953964 0.91445971 -0.03196454
0.16954996 0.91445971 -0.03196445
0.17200763 0.91445971 -0.03194254
0.17201800 0.91445971 -0.03194243
0.17448964 0.91445971 -0.03191654
0.17450007 0.91445971 -0.03191640
0.17698563 0.91445971 -0.03188454
0.17699612 0.91445971 -0.03188439
0.17949664 0.91445971 -0.03184854
0.17950719 0.91445971 -0.03184837
0.18202064 0.91445971 -0.03180754
0.18203125 0.91445971 -0.03180734
0.18455963 0.91445971 -0.03176154
0.18457029 0.91445971 -0.03176133
0.18711164 0.91445971 -0.03171053
0.18712236 0.91445971 -0.03171030
0.18967863 0.91445971 -0.03165554
0.18968942 0.91445971 -0.03165528
0.19225864 0.91445971 -0.03159454
0.19226948 0.91445971 -0.03159426
0.19485163 0.91445971 -0.03152954
0.19486253 0.91445971 -0.03152924
0.19745864 0.91445971 -0.03145954
0.19746958 0.91445971 -0.03145923
0.20007863 0.91445971 -0.03138554
0.20008965 0.91445971 -0.03138521
0.20271263 0.91445971 -0.03130654
0.20272369 0.91445971 -0.03130618
0.20535962 0.91445971 -0.03122254
0.20537074 0.91445971 -0.03122217
0.20801963 0.91445971 -0.03113354
0.20803079 0.91445971 -0.03113315
0.21069164 0.91445971 -0.03104054
0.21070286 0.91445971 -0.03104013
0.21337763 0.91445971 -0.03094254
0.21338890 0.91445971 -0.03094211
0.21607564 0.91445971 -0.03083954
0.21608698 0.91445971 -0.03083909
0.21878663 0.91445971 -0.03073254
0.21879801 0.91445971 -0.03073207
0.22151064 0.91445971 -0.03062054
0.22152207 0.91445971 -0.03062005
0.22424663 0.91445971 -0.03050454
0.22425811 0.91445971 -0.03050403
0.22699464 0.91445971 -0.03038354
0.22700618 0.91445971 -0.03038301
0.22975564 0.91445971 -0.03025754
0.22976722 0.91445971 -0.03025699
0.23252763 0.91445971 -0.03012754
0.23253928 0.91445971 -0.03012698
0.23531263 0.91445971 -0.02999354
0.23532432 0.91445971 -0.02999296
0.23810863 0.91445971 -0.02985454
0.23812036 0.91445971 -0.02985394
0.24091663 0.91445971 -0.02971154
0.24092842 0.91445971 -0.02971092
0.24373663 0.91445971 -0.02956354
0.24374846 0.91445971 -0.02956290
0.24656763 0.91445971 -0.02941154
0.24657951 0.91445971 -0.02941089
0.24941063 0.91445971 -0.02925553
0.24942256 0.91445971 -0.02925486
0.25226463 0.91445971 -0.02909454
0.25227661 0.91445971 -0.02909385
0.25512962 0.91445971 -0.02892954
0.25514164 0.91445971 -0.02892883
0.25800565 0.91445971 -0.02876054
0.25801773 0.91445971 -0.02875981
0.26089263 0.91445971 -0.02858754
0.26090474 0.91445971 -0.02858679
0.26379062 0.91445971 -0.02840954
0.26380278 0.91445971 -0.02840878
0.26669964 0.91445971 -0.02822754
0.26671184 0.91445971 -0.02822676
0.26961861 0.91445971 -0.02804154
0.26963086 0.91445971 -0.02804075
0.27254865 0.91445971 -0.02785154
0.27256093 0.91445971 -0.02785073
0.27548961 0.91445971 -0.02765754
0.27550195 0.91445971 -0.02765671
0.27843964 0.91445971 -0.02745954
0.27845201 0.91445971 -0.02745869
0.28140065 0.91445971 -0.02725654
0.28141305 0.91445971 -0.02725568
0.28437062 0.91445971 -0.02705054