#++++++++++++++++++++++++++++++++++++++++++++++++++++++++++++++++++++++++++++++++++++++++++++++++++++++++++++++++++++
#
#   IPW-3 Ice Shape DATA SUBMITTAL FORM for Test Case NACA0012_AE3932, May 18th 2026
#
#       NOMENCLATURE:
#             X_ICED [m]:  X-coordinate of the iced surface
#             Y_ICED [m]:  Y-coordinate of the iced surface
#             Z_ICED [m]:  Z-coordinate of the iced surface
#
#                1mm:  Roughness height used for the case, in mm.
#                       In the zone name, use the format KS_1mm.
#                       For example, if k_s = 1.5 mm, use KS_1p5mm. 
#                       For Variable roughness, use KS_VAR
#
#    FLOW CONDITIONS:
#                                   AOA: 4.0 deg
#                           Mach Number: 0.3151 [-]
#       Mean aerodynamic chord (M.A.C.): 0.5334 [m]
#                       Reynolds Number: 3.9795 million (based on MAC)
#                       Freestream Temp: 267.55 [K]
#                        Reference area: 0.97548 [m2]
#               Moment Reference Center: 0.13335, 0, 0 [m] (X, Y, Z)
#
#    ICING CONDITIONS:
#                           Icing Time: 420 [s]
#                                  LWC: 0.55 [g/m3]
#                                  MVD: 20 [μm]
#
#              NOTES: 1. Please use at least 5 decimal places in the numerical values
#                     2. If data are NOT provided, please fill data fields with a numerical value of "-999" 
#
#++++++++++++++++++++++++++++++++++++++++++++++++++++++++++++++++++++++++++++++++++++++++++++++++++++++++++++++++++++

AUXDATA NUM_LAYERS  = "insert the number of total ice layers"
                                              
VARIABLES = "X_ICED" "Y_ICED" "Z_ICED"

ZONE T="SLICE_Y_0p9144_BINS01_KS_1mm_SINGLE_LAYER"
0.53339962 0.91433293 0.00068246
0.53005048 0.91433293 0.00115026
0.53003467 0.91433293 0.00115247
0.52668543 0.91433293 0.00161727
0.52666963 0.91433293 0.00161946
0.52332145 0.91433293 0.00208029
0.52330564 0.91433293 0.00208246
0.51995744 0.91433293 0.00253931
0.51994163 0.91433293 0.00254146
0.51659346 0.91433293 0.00299532
0.51657766 0.91433293 0.00299746
0.51323047 0.91433293 0.00344834
0.51321467 0.91433293 0.00345047
0.50986843 0.91433293 0.00389636
0.50985263 0.91433293 0.00389846
0.50650748 0.91433293 0.00434237
0.50649168 0.91433293 0.00434447
0.50314742 0.91433293 0.00478340
0.50313162 0.91433293 0.00478546
0.49978840 0.91433293 0.00522240
0.49977263 0.91433293 0.00522446
0.49643142 0.91433293 0.00565742
0.49641565 0.91433293 0.00565946
0.49307540 0.91433293 0.00608844
0.49305963 0.91433293 0.00609046
0.48972037 0.91433293 0.00651645
0.48970464 0.91433293 0.00651846
0.48636738 0.91433293 0.00694147
0.48635164 0.91433293 0.00694346
0.48301737 0.91433293 0.00736348
0.48300164 0.91433293 0.00736546
0.47966836 0.91433293 0.00778150
0.47965263 0.91433293 0.00778346
0.47632132 0.91433293 0.00819651
0.47630562 0.91433293 0.00819846
0.47297734 0.91433293 0.00860754
0.47296164 0.91433293 0.00860946
0.46963533 0.91433293 0.00901555
0.46961963 0.91433293 0.00901746
0.46629533 0.91433293 0.00942056
0.46627966 0.91433293 0.00942246
0.46295828 0.91433293 0.00982258
0.46294261 0.91433293 0.00982446
0.45962428 0.91433293 0.01022159
0.45960864 0.91433293 0.01022346
0.45629328 0.91433293 0.01061661
0.45627764 0.91433293 0.01061846
0.45296526 0.91433293 0.01100862
0.45294963 0.91433293 0.01101046
0.44964123 0.91433293 0.01139764
0.44962562 0.91433293 0.01139946
0.44631923 0.91433293 0.01178266
0.44630363 0.91433293 0.01178446
0.44300123 0.91433293 0.01216567
0.44298565 0.91433293 0.01216746
0.43968721 0.91433293 0.01254469
0.43967164 0.91433293 0.01254646
0.43637618 0.91433293 0.01292070
0.43636064 0.91433293 0.01292246
0.43306918 0.91433293 0.01329371
0.43305364 0.91433293 0.01329546
0.42976616 0.91433293 0.01366373
0.42975065 0.91433293 0.01366546
0.42646810 0.91433293 0.01402974
0.42645263 0.91433293 0.01403146
0.42317309 0.91433293 0.01439375
0.42315761 0.91433293 0.01439546
0.41988307 0.91433293 0.01475377
0.41986763 0.91433293 0.01475546
0.41659805 0.91433293 0.01511079
0.41658264 0.91433293 0.01511246
0.41331706 0.91433293 0.01546480
0.41330165 0.91433293 0.01546646
0.41004104 0.91433293 0.01581482
0.41002566 0.91433293 0.01581646
0.40676998 0.91433293 0.01616183
0.40675463 0.91433293 0.01616346
0.40350300 0.91433293 0.01650684
0.40348765 0.91433293 0.01650846
0.40024198 0.91433293 0.01684786
0.40022666 0.91433293 0.01684946
0.39698691 0.91433293 0.01718488
0.39697162 0.91433293 0.01718646
0.39373590 0.91433293 0.01751989
0.39372064 0.91433293 0.01752146
0.39049186 0.91433293 0.01785091
0.39047663 0.91433293 0.01785246
0.38725284 0.91433293 0.01817892
0.38723764 0.91433293 0.01818046
0.38401982 0.91433293 0.01850394
0.38400466 0.91433293 0.01850547
0.38079180 0.91433293 0.01882496
0.38077664 0.91433293 0.01882646
0.37757077 0.91433293 0.01914397
0.37755564 0.91433293 0.01914546
0.37435575 0.91433293 0.01945899
0.37434065 0.91433293 0.01946046
0.37114770 0.91433293 0.01977000
0.37113263 0.91433293 0.01977146
0.36794467 0.91433293 0.02007901
0.36792963 0.91433293 0.02008046
0.36474966 0.91433293 0.02038304
0.36473465 0.91433293 0.02038446
0.36156061 0.91433293 0.02068505
0.36154564 0.91433293 0.02068646
0.35837857 0.91433293 0.02098307
0.35836362 0.91433293 0.02098446
0.35520355 0.91433293 0.02127808
0.35518863 0.91433293 0.02127946
0.35203553 0.91433293 0.02156910
0.35202065 0.91433293 0.02157046
0.34887447 0.91433293 0.02185711
0.34885962 0.91433293 0.02185846
0.34572142 0.91433293 0.02214212
0.34570663 0.91433293 0.02214346
0.34257540 0.91433293 0.02242314
0.34256064 0.91433293 0.02242446
0.33943635 0.91433293 0.02270016
0.33942162 0.91433293 0.02270146
0.33630635 0.91433293 0.02297517
0.33629165 0.91433293 0.02297646
0.33318332 0.91433293 0.02324520
0.33316866 0.91433293 0.02324647
0.33006825 0.91433293 0.02351221
0.33005361 0.91433293 0.02351346
0.32696122 0.91433293 0.02377523
0.32694664 0.91433293 0.02377646
0.32386318 0.91433293 0.02403524
0.32384864 0.91433293 0.02403646
0.32077313 0.91433293 0.02429126
0.32075862 0.91433293 0.02429246
0.31769107 0.91433293 0.02454328
0.31767662 0.91433293 0.02454446
0.31461807 0.91433293 0.02479229
0.31460364 0.91433293 0.02479346
0.31155302 0.91433293 0.02503731
0.31153862 0.91433293 0.02503846
0.30849795 0.91433293 0.02527833
0.30848362 0.91433293 0.02527946
0.30545093 0.91433293 0.02551635
0.30543663 0.91433293 0.02551746
0.30241390 0.91433293 0.02574937
0.30239964 0.91433293 0.02575046
0.29938486 0.91433293 0.02597939
0.29937065 0.91433293 0.02598047
0.29636580 0.91433293 0.02620540
0.29635162 0.91433293 0.02620646
0.29335676 0.91433293 0.02642742
0.29334264 0.91433293 0.02642846
0.29035571 0.91433293 0.02664544
0.29034162 0.91433293 0.02664646
0.28736565 0.91433293 0.02686045
0.28735163 0.91433293 0.02686146
0.28438460 0.91433293 0.02707048
0.28437061 0.91433293 0.02707146
0.28141457 0.91433293 0.02727650
0.28140064 0.91433293 0.02727746
0.27845352 0.91433293 0.02747951
0.27843962 0.91433293 0.02748046
0.27550346 0.91433293 0.02767753
0.27548962 0.91433293 0.02767846
0.27256243 0.91433293 0.02787155
0.27254862 0.91433293 0.02787246
0.26963238 0.91433293 0.02806157
0.26961863 0.91433293 0.02806247
0.26671336 0.91433293 0.02824759
0.26669965 0.91433293 0.02824846
0.26380427 0.91433293 0.02842961
0.26379062 0.91433293 0.02843046
0.26090622 0.91433293 0.02860763
0.26089263 0.91433293 0.02860846
0.25801921 0.91433293 0.02878065
0.25800565 0.91433293 0.02878146
0.25514311 0.91433293 0.02894967
0.25512961 0.91433293 0.02895046
0.25227808 0.91433293 0.02911469
0.25226465 0.91433293 0.02911546
0.24942403 0.91433293 0.02927571
0.24941062 0.91433293 0.02927646
0.24658098 0.91433293 0.02943173
0.24656763 0.91433293 0.02943246
0.24374991 0.91433293 0.02958375
0.24373663 0.91433293 0.02958446
0.24092987 0.91433293 0.02973177
0.24091663 0.91433293 0.02973246
0.23812181 0.91433293 0.02987479
0.23810863 0.91433293 0.02987546
0.23532576 0.91433293 0.03001381
0.23531263 0.91433293 0.03001446
0.23254071 0.91433293 0.03014784
0.23252764 0.91433293 0.03014846
0.22976865 0.91433293 0.03027785
0.22975564 0.91433293 0.03027846
0.22700761 0.91433293 0.03040387
0.22699464 0.91433293 0.03040446
0.22425952 0.91433293 0.03052490
0.22424662 0.91433293 0.03052546
0.22152348 0.91433293 0.03064092
0.22151065 0.91433293 0.03064146
0.21879942 0.91433293 0.03075294
0.21878663 0.91433293 0.03075346
0.21608836 0.91433293 0.03085996
0.21607563 0.91433293 0.03086046
0.21339031 0.91433293 0.03096298
0.21337764 0.91433293 0.03096346
0.21070424 0.91433293 0.03106100
0.21069163 0.91433293 0.03106146
0.20803219 0.91433293 0.03115403
0.20801964 0.91433293 0.03115447
0.20537212 0.91433293 0.03124305
0.20535963 0.91433293 0.03124346
0.20272506 0.91433293 0.03132707
0.20271263 0.91433293 0.03132746
0.20009099 0.91433293 0.03140609
0.20007862 0.91433293 0.03140647
0.19747093 0.91433293 0.03148012
0.19745863 0.91433293 0.03148046
0.19486387 0.91433293 0.03155013
0.19485163 0.91433293 0.03155046
0.19227080 0.91433293 0.03161516
0.19225863 0.91433293 0.03161547
0.18969074 0.91433293 0.03167618
0.18967864 0.91433293 0.03167646
0.18712369 0.91433293 0.03173120
0.18711164 0.91433293 0.03173146
0.18457162 0.91433293 0.03178222
0.18455964 0.91433293 0.03178246
0.18203256 0.91433293 0.03182825
0.18202064 0.91433293 0.03182846
0.17950849 0.91433293 0.03186927
0.17949665 0.91433293 0.03186946
0.17699742 0.91433293 0.03190530
0.17698564 0.91433293 0.03190546
0.17450136 0.91433293 0.03193731
0.17448963 0.91433293 0.03193746
0.17201928 0.91433293 0.03196334
0.17200763 0.91433293 0.03196346
0.16955122 0.91433293 0.03198536
0.16953963 0.91433293 0.03198546
0.16709815 0.91433293 0.03200238
0.16708664 0.91433293 0.03200246
0.16465908 0.91433293 0.03201441
0.16464764 0.91433293 0.03201446
0.16223502 0.91433293 0.03202143
0.16222363 0.91433293 0.03202146
0.15982594 0.91433293 0.03202345
0.15981463 0.91433293 0.03202346
0.15743186 0.91433293 0.03202147
0.15742063 0.91433293 0.03202146
0.15505181 0.91433293 0.03201350
0.15504064 0.91433293 0.03201346
0.15268773 0.91433293 0.03200052
0.15267663 0.91433293 0.03200046
0.15033867 0.91433293 0.03198355
0.15032764 0.91433293 0.03198346
0.14800459 0.91433293 0.03196157
0.14799363 0.91433293 0.03196146
0.14568652 0.91433293 0.03193459
0.14567564 0.91433293 0.03193446
0.14338246 0.91433293 0.03190261
0.14337164 0.91433293 0.03190246
0.14109537 0.91433293 0.03186564
0.14108463 0.91433293 0.03186546
0.13882331 0.91433293 0.03182366
0.13881264 0.91433293 0.03182346
0.13656723 0.91433293 0.03177669
0.13655664 0.91433293 0.03177647
0.13432615 0.91433293 0.03172471
0.13431564 0.91433293 0.03172446
0.13210107 0.91433293 0.03166873
0.13209063 0.91433293 0.03166847
0.12989301 0.91433293 0.03160775
0.12988265 0.91433293 0.03160746
0.12769993 0.91433293 0.03154078
0.12768963 0.91433293 0.03154046
0.12552385 0.91433293 0.03146980
0.12551364 0.91433293 0.03146946
0.12336377 0.91433293 0.03139382
0.12335364 0.91433293 0.03139346
0.12121970 0.91433293 0.03131384
0.12120963 0.91433293 0.03131346
0.11909162 0.91433293 0.03122787
0.11908163 0.91433293 0.03122746
0.11698054 0.91433293 0.03113789
0.11697063 0.91433293 0.03113746
0.11488647 0.91433293 0.03104291
0.11487664 0.91433293 0.03104246
0.11280839 0.91433293 0.03094293
0.11279864 0.91433293 0.03094246
0.11074731 0.91433293 0.03083796
0.11073763 0.91433293 0.03083746
0.10870323 0.91433293 0.03072798
0.10869364 0.91433293 0.03072746
0.10667516 0.91433293 0.03061400
0.10666564 0.91433293 0.03061346
0.10466508 0.91433293 0.03049502
0.10465564 0.91433293 0.03049446
0.10267200 0.91433293 0.03037204
0.10266264 0.91433293 0.03037146
0.10069591 0.91433293 0.03024406
0.10068663 0.91433293 0.03024346
0.09873683 0.91433293 0.03011109
0.09872764 0.91433293 0.03011046
0.09679475 0.91433293 0.02997311
0.09678563 0.91433293 0.02997246
0.09487066 0.91433293 0.02983113
0.09486163 0.91433293 0.02983046
0.09296359 0.91433293 0.02968415
0.09295463 0.91433293 0.02968346
0.09107450 0.91433293 0.02953317
0.09106564 0.91433293 0.02953247
0.08920242 0.91433293 0.02937720
0.08919364 0.91433293 0.02937646
0.08734833 0.91433293 0.02921722
0.08733963 0.91433293 0.02921647
0.08551225 0.91433293 0.02905224
0.08550364 0.91433293 0.02905146
0.08369417 0.91433293 0.02888326
0.08368563 0.91433293 0.02888246
0.08189309 0.91433293 0.02871027
0.08188463 0.91433293 0.02870946
0.08011100 0.91433293 0.02853230
0.08010263 0.91433293 0.02853146
0.07834591 0.91433293 0.02834932
0.07833763 0.91433293 0.02834847
0.07659983 0.91433293 0.02816234
0.07659163 0.91433293 0.02816146
0.07487174 0.91433293 0.02797136
0.07486364 0.91433293 0.02797046
0.07316166 0.91433293 0.02777638
0.07315363 0.91433293 0.02777547
0.07146957 0.91433293 0.02757740
0.07146163 0.91433293 0.02757646
0.06979648 0.91433293 0.02737342
0.06978863 0.91433293 0.02737246
0.06814140 0.91433293 0.02716544
0.06813364 0.91433293 0.02716446
0.06650531 0.91433293 0.02695346
0.06649763 0.91433293 0.02695246
0.06488723 0.91433293 0.02673748
0.06487963 0.91433293 0.02673646
0.06328814 0.91433293 0.02651749
0.06328064 0.91433293 0.02651646
0.06170805 0.91433293 0.02629351
0.06170063 0.91433293 0.02629246
0.06014596 0.91433293 0.02606554
0.06013863 0.91433293 0.02606446
0.05860288 0.91433293 0.02583355
0.05859563 0.91433293 0.02583246
0.05707879 0.91433293 0.02559757
0.05707163 0.91433293 0.02559646
0.05557469 0.91433293 0.02535759
0.05556763 0.91433293 0.02535646
0.05408861 0.91433293 0.02511361
0.05408163 0.91433293 0.02511246
0.05262152 0.91433293 0.02486662
0.05261464 0.91433293 0.02486546
0.05117343 0.91433293 0.02461465
0.05116663 0.91433293 0.02461346
0.04974534 0.91433293 0.02435966
0.04973863 0.91433293 0.02435846
0.04833525 0.91433293 0.02410167
0.04832863 0.91433293 0.02410046
0.04694615 0.91433293 0.02383969
0.04693963 0.91433293 0.02383846
0.04557507 0.91433293 0.02357371
0.04556863 0.91433293 0.02357246
0.04422398 0.91433293 0.02330373
0.04421763 0.91433293 0.02330246
0.04289188 0.91433293 0.02303074
0.04288563 0.91433293 0.02302946
0.04157979 0.91433293 0.02275476
0.04157364 0.91433293 0.02275346
0.04028671 0.91433293 0.02247478
0.04028064 0.91433293 0.02247346
0.03901361 0.91433293 0.02219179
0.03900763 0.91433293 0.02219046
0.03776052 0.91433293 0.02190481
0.03775464 0.91433293 0.02190346
0.03652742 0.91433293 0.02161482
0.03652164 0.91433293 0.02161346
0.03531333 0.91433293 0.02132184
0.03530763 0.91433293 0.02132046
0.03411924 0.91433293 0.02102585
0.03411364 0.91433293 0.02102446
0.03294515 0.91433293 0.02072587
0.03293964 0.91433293 0.02072446
0.03179006 0.91433293 0.02042388
0.03178463 0.91433293 0.02042246
0.03065596 0.91433293 0.02011790
0.03065064 0.91433293 0.02011647
0.02954186 0.91433293 0.01980892
0.02953663 0.91433293 0.01980747
0.02844776 0.91433293 0.01949696
0.02844262 0.91433293 0.01949550
0.02737363 0.91433293 0.01918210
0.02736859 0.91433293 0.01918062
0.02631937 0.91433293 0.01886566
0.02631442 0.91433293 0.01886418
0.02528453 0.91433293 0.01854700
0.02527968 0.91433293 0.01854551
0.02426870 0.91433293 0.01823136
0.02426394 0.91433293 0.01822988
0.02326687 0.91433293 0.01792833
0.02326216 0.91433293 0.01792691
0.02228025 0.91433293 0.01763767
0.02227562 0.91433293 0.01763631
0.02131623 0.91433293 0.01733739
0.02131170 0.91433293 0.01733598
0.02037725 0.91433293 0.01701637
0.02037285 0.91433293 0.01701486
0.01945817 0.91433293 0.01669620
0.01945385 0.91433293 0.01669470
0.01854000 0.91433293 0.01642062
0.01853569 0.91433293 0.01641933
0.01759649 0.91433293 0.01625234
0.01759206 0.91433293 0.01625155
0.01662201 0.91433293 0.01619829
0.01661744 0.91433293 0.01619804
0.01568291 0.91433293 0.01608678
0.01567850 0.91433293 0.01608625
0.01482811 0.91433293 0.01581210
0.01482410 0.91433293 0.01581081
0.01400511 0.91433293 0.01550302
0.01400125 0.91433293 0.01550157
0.01314764 0.91433293 0.01530377
0.01314362 0.91433293 0.01530284
0.01216909 0.91433293 0.01538508
0.01216450 0.91433293 0.01538547
0.01103977 0.91433293 0.01576800
0.01103447 0.91433293 0.01576980
0.00994105 0.91433293 0.01607496
0.00993589 0.91433293 0.01607640
0.00890550 0.91433293 0.01625595
0.00890064 0.91433293 0.01625680
0.00740933 0.91433293 0.01723404
0.00740229 0.91433293 0.01723865
0.00462242 0.91433293 0.02035398
0.00460931 0.91433293 0.02036867
0.00071859 0.91433293 0.02507614
0.00070024 0.91433293 0.02509834
-0.00201900 0.91433293 0.02753896
-0.00203183 0.91433293 0.02755046
-0.00289428 0.91433293 0.02694977
-0.00289835 0.91433293 0.02694694
-0.00363246 0.91433293 0.02614918
-0.00363593 0.91433293 0.02614542
-0.00447886 0.91433293 0.02551838
-0.00448283 0.91433293 0.02551543
-0.00531516 0.91433293 0.02486897
-0.00531909 0.91433293 0.02486592
-0.00610822 0.91433293 0.02415745
-0.00611194 0.91433293 0.02415411
-0.00676114 0.91433293 0.02329000
-0.00676420 0.91433293 0.02328592
-0.00710650 0.91433293 0.02205970
-0.00710812 0.91433293 0.02205392
-0.00710604 0.91433293 0.02047803
-0.00710603 0.91433293 0.02047059
-0.00719316 0.91433293 0.01909581
-0.00719357 0.91433293 0.01908933
-0.00770963 0.91433293 0.01819228
-0.00771206 0.91433293 0.01818805
-0.00840518 0.91433293 0.01743230
-0.00840844 0.91433293 0.01742873
-0.00908116 0.91433293 0.01665676
-0.00908433 0.91433293 0.01665312
-0.00972521 0.91433293 0.01583770
-0.00972823 0.91433293 0.01583385
-0.01028831 0.91433293 0.01494124
-0.01029095 0.91433293 0.01493703
-0.01060625 0.91433293 0.01388208
-0.01060773 0.91433293 0.01387710
-0.01036549 0.91433293 0.01247418
-0.01036435 0.91433293 0.01246757
-0.00950613 0.91433293 0.01078279
-0.00950209 0.91433293 0.01077485
-0.00883716 0.91433293 0.00933156
-0.00883402 0.91433293 0.00932475
-0.00892125 0.91433293 0.00832921
-0.00892166 0.91433293 0.00832451
-0.00928494 0.91433293 0.00746147
-0.00928666 0.91433293 0.00745740
-0.00962102 0.91433293 0.00659091
-0.00962259 0.91433293 0.00658682
-0.00991841 0.91433293 0.00569987
-0.00991980 0.91433293 0.00569568
-0.01017737 0.91433293 0.00477655
-0.01017858 0.91433293 0.00477222
-0.01038825 0.91433293 0.00383456
-0.01038924 0.91433293 0.00383014
-0.01053293 0.91433293 0.00289987
-0.01053361 0.91433293 0.00289548
-0.01056635 0.91433293 0.00193073
-0.01056650 0.91433293 0.00192618
-0.01032065 0.91433293 0.00095241
-0.01031949 0.91433293 0.00094781
-0.00946836 0.91433293 0.00001486
-0.00946435 0.91433293 0.00001046
-0.00800270 0.91433293 -0.00080733
-0.00799581 0.91433293 -0.00081119
-0.00679399 0.91433293 -0.00152020
-0.00678832 0.91433293 -0.00152355
-0.00637094 0.91433293 -0.00223606
-0.00636898 0.91433293 -0.00223942
-0.00622805 0.91433293 -0.00296361
-0.00622738 0.91433293 -0.00296703
-0.00606125 0.91433293 -0.00369783
-0.00606047 0.91433293 -0.00370128
-0.00585900 0.91433293 -0.00442098
-0.00585805 0.91433293 -0.00442438
-0.00562478 0.91433293 -0.00512371
-0.00562368 0.91433293 -0.00512701
-0.00535324 0.91433293 -0.00581127
-0.00535196 0.91433293 -0.00581450
-0.00502497 0.91433293 -0.00648091
-0.00502343 0.91433293 -0.00648405
-0.00460858 0.91433293 -0.00709753
-0.00460662 0.91433293 -0.00710042
-0.00410292 0.91433293 -0.00764616
-0.00410055 0.91433293 -0.00764873
-0.00360102 0.91433293 -0.00818392
-0.00359866 0.91433293 -0.00818645
-0.00316831 0.91433293 -0.00875587
-0.00316628 0.91433293 -0.00875855
-0.00275217 0.91433293 -0.00933321
-0.00275022 0.91433293 -0.00933592
-0.00231485 0.91433293 -0.00990282
-0.00231280 0.91433293 -0.00990550
-0.00186017 0.91433293 -0.01046116
-0.00185803 0.91433293 -0.01046379
-0.00139964 0.91433293 -0.01101807
-0.00139748 0.91433293 -0.01102069
-0.00095853 0.91433293 -0.01160882
-0.00095646 0.91433293 -0.01161159
-0.00060297 0.91433293 -0.01229010
-0.00060131 0.91433293 -0.01229330
-0.00032191 0.91433293 -0.01308011
-0.00032059 0.91433293 -0.01308382
0.00004873 0.91433293 -0.01382056
0.00005047 0.91433293 -0.01382403
0.00058350 0.91433293 -0.01438950
0.00058602 0.91433293 -0.01439217
0.00118622 0.91433293 -0.01488377
0.00118905 0.91433293 -0.01488609
0.00180888 0.91433293 -0.01537180
0.00181181 0.91433293 -0.01537409
0.00243888 0.91433293 -0.01586406
0.00244184 0.91433293 -0.01586637
0.00306349 0.91433293 -0.01638141
0.00306642 0.91433293 -0.01638384
0.00368534 0.91433293 -0.01692754
0.00368826 0.91433293 -0.01693010
0.00433638 0.91433293 -0.01744824
0.00433944 0.91433293 -0.01745068
0.00504150 0.91433293 -0.01791399
0.00504481 0.91433293 -0.01791618
0.00577104 0.91433293 -0.01835003
0.00577446 0.91433293 -0.01835208
0.00651765 0.91433293 -0.01878337
0.00652115 0.91433293 -0.01878540
0.00728100 0.91433293 -0.01922185
0.00728459 0.91433293 -0.01922390
0.00804040 0.91433293 -0.01967498
0.00804396 0.91433293 -0.01967710
0.00881166 0.91433293 -0.02015325
0.00881528 0.91433293 -0.02015549
0.00960898 0.91433293 -0.02061471
0.00961272 0.91433293 -0.02061688
0.01043459 0.91433293 -0.02103494
0.01043847 0.91433293 -0.02103691
0.01128458 0.91433293 -0.02145160
0.01128857 0.91433293 -0.02145356
0.01213688 0.91433293 -0.02189481
0.01214088 0.91433293 -0.02189689
0.01299202 0.91433293 -0.02236983
0.01299603 0.91433293 -0.02237206
0.01387347 0.91433293 -0.02282562
0.01387761 0.91433293 -0.02282776
0.01478809 0.91433293 -0.02323096
0.01479238 0.91433293 -0.02323286
0.01573042 0.91433293 -0.02363558
0.01573484 0.91433293 -0.02363748
0.01666710 0.91433293 -0.02408090
0.01667149 0.91433293 -0.02408299
0.01760345 0.91433293 -0.02457758
0.01760784 0.91433293 -0.02457991
0.01857360 0.91433293 -0.02504882
0.01857815 0.91433293 -0.02505103
0.01958082 0.91433293 -0.02544655
0.01958555 0.91433293 -0.02544842
0.02061554 0.91433293 -0.02583639
0.02062040 0.91433293 -0.02583822
0.02164447 0.91433293 -0.02627923
0.02164930 0.91433293 -0.02628131
0.02267122 0.91433293 -0.02678416
0.02267603 0.91433293 -0.02678654
0.02373629 0.91433293 -0.02726106
0.02374129 0.91433293 -0.02726330
0.02484184 0.91433293 -0.02764727
0.02484703 0.91433293 -0.02764908
0.02596555 0.91433293 -0.02801866
0.02597083 0.91433293 -0.02802040
0.02709384 0.91433293 -0.02845019
0.02709914 0.91433293 -0.02845221
0.02822248 0.91433293 -0.02894845
0.02822778 0.91433293 -0.02895079
0.02938241 0.91433293 -0.02942158
0.02938786 0.91433293 -0.02942380
0.03057732 0.91433293 -0.02981845
0.03058293 0.91433293 -0.02982031
0.03178267 0.91433293 -0.03023930
0.03178833 0.91433293 -0.03024128
0.03299549 0.91433293 -0.03072572
0.03300119 0.91433293 -0.03072801
0.03423140 0.91433293 -0.03117790
0.03423720 0.91433293 -0.03118002
0.03550782 0.91433293 -0.03153444
0.03551381 0.91433293 -0.03153612
0.03681081 0.91433293 -0.03187518
0.03681693 0.91433293 -0.03187678
0.03811862 0.91433293 -0.03227563
0.03812476 0.91433293 -0.03227751
0.03942914 0.91433293 -0.03274801
0.03943529 0.91433293 -0.03275023
0.04076060 0.91433293 -0.03320960
0.04076685 0.91433293 -0.03321176
0.04211655 0.91433293 -0.03362894
0.04212291 0.91433293 -0.03363091
0.04349040 0.91433293 -0.03406962
0.04349685 0.91433293 -0.03407169
0.04489353 0.91433293 -0.03447581
0.04490012 0.91433293 -0.03447772
0.04633553 0.91433293 -0.03476889
0.04634229 0.91433293 -0.03477026
0.04782512 0.91433293 -0.03488338
0.04783212 0.91433293 -0.03488392
0.04943420 0.91433293 -0.03437859
0.04944176 0.91433293 -0.03437621
0.05132796 0.91433293 -0.03231789
0.05133686 0.91433293 -0.03230818
0.05335830 0.91433293 -0.02939790
0.05336784 0.91433293 -0.02938417
0.05511898 0.91433293 -0.02806217
0.05512724 0.91433293 -0.02805594
0.05667956 0.91433293 -0.02802300
0.05668688 0.91433293 -0.02802285
0.05823937 0.91433293 -0.02809775
0.05824669 0.91433293 -0.02809811
0.05980422 0.91433293 -0.02825035
0.05981157 0.91433293 -0.02825107
0.06139015 0.91433293 -0.02837728
0.06139760 0.91433293 -0.02837788
0.06300237 0.91433293 -0.02843324
0.06300994 0.91433293 -0.02843350
0.06462870 0.91433293 -0.02851018
0.06463633 0.91433293 -0.02851054
0.06626283 0.91433293 -0.02865755
0.06627050 0.91433293 -0.02865825
0.06791621 0.91433293 -0.02878564
0.06792398 0.91433293 -0.02878624
0.06959493 0.91433293 -0.02885210
0.06960281 0.91433293 -0.02885241
0.07128959 0.91433293 -0.02892520
0.07129754 0.91433293 -0.02892555
0.07299730 0.91433293 -0.02903458
0.07300532 0.91433293 -0.02903509
0.07472312 0.91433293 -0.02912833
0.07473123 0.91433293 -0.02912877
0.07646578 0.91433293 -0.02922159
0.07647395 0.91433293 -0.02922203
0.07822406 0.91433293 -0.02932635
0.07823232 0.91433293 -0.02932685
0.08000329 0.91433293 -0.02940417
0.08001164 0.91433293 -0.02940454
0.08179863 0.91433293 -0.02948004
0.08180705 0.91433293 -0.02948040
0.08361044 0.91433293 -0.02956680
0.08361895 0.91433293 -0.02956720
0.08544056 0.91433293 -0.02962632
0.08544915 0.91433293 -0.02962660
0.08728740 0.91433293 -0.02968978
0.08729607 0.91433293 -0.02969008
0.08914915 0.91433293 -0.02977663
0.08915788 0.91433293 -0.02977704
0.09102932 0.91433293 -0.02984792
0.09103815 0.91433293 -0.02984826
0.09292545 0.91433293 -0.02992054
0.09293436 0.91433293 -0.02992088
0.09483742 0.91433293 -0.03001101
0.09484640 0.91433293 -0.03001143
0.09676660 0.91433293 -0.03008899
0.09677565 0.91433293 -0.03008936
0.09871257 0.91433293 -0.03017455
0.09872171 0.91433293 -0.03017495
0.10067309 0.91433293 -0.03028744
0.10068229 0.91433293 -0.03028797
0.10265018 0.91433293 -0.03040021
0.10265947 0.91433293 -0.03040073
0.10464472 0.91433293 -0.03049880
0.10465408 0.91433293 -0.03049926
0.10665585 0.91433293 -0.03059801
0.10666529 0.91433293 -0.03059848
0.10868410 0.91433293 -0.03070626
0.10869363 0.91433293 -0.03070677
0.11072804 0.91433293 -0.03081602
0.11073763 0.91433293 -0.03081654
0.11278896 0.91433293 -0.03092104
0.11279864 0.91433293 -0.03092154
0.11486688 0.91433293 -0.03102107
0.11487664 0.91433293 -0.03102154
0.11696081 0.91433293 -0.03111609
0.11697064 0.91433293 -0.03111654
0.11907172 0.91433293 -0.03120611
0.11908163 0.91433293 -0.03120654
0.12119964 0.91433293 -0.03129213
0.12120964 0.91433293 -0.03129254
0.12334357 0.91433293 -0.03137216
0.12335364 0.91433293 -0.03137254
0.12550349 0.91433293 -0.03144818
0.12551363 0.91433293 -0.03144854
0.12767942 0.91433293 -0.03151920
0.12768964 0.91433293 -0.03151954
0.12987234 0.91433293 -0.03158622
0.12988264 0.91433293 -0.03158654
0.13208026 0.91433293 -0.03164725
0.13209063 0.91433293 -0.03164754
0.13430519 0.91433293 -0.03170327
0.13431564 0.91433293 -0.03170354
0.13654612 0.91433293 -0.03175529
0.13655664 0.91433293 -0.03175554
0.13880205 0.91433293 -0.03180232
0.13881264 0.91433293 -0.03180254
0.14107397 0.91433293 -0.03184434
0.14108463 0.91433293 -0.03184453
0.14336090 0.91433293 -0.03188136
0.14337164 0.91433293 -0.03188154
0.14566482 0.91433293 -0.03191338
0.14567563 0.91433293 -0.03191354
0.14798275 0.91433293 -0.03194041
0.14799363 0.91433293 -0.03194054
0.15031668 0.91433293 -0.03196243
0.15032764 0.91433293 -0.03196254
0.15266560 0.91433293 -0.03197945
0.15267663 0.91433293 -0.03197953
0.15502953 0.91433293 -0.03199248
0.15504063 0.91433293 -0.03199254
0.15740945 0.91433293 -0.03200050
0.15742062 0.91433293 -0.03200053
0.15980339 0.91433293 -0.03200253
0.15981463 0.91433293 -0.03200254
0.16221232 0.91433293 -0.03200054
0.16222363 0.91433293 -0.03200053
0.16463626 0.91433293 -0.03199357
0.16464764 0.91433293 -0.03199353
0.16707519 0.91433293 -0.03198159
0.16708664 0.91433293 -0.03198154
0.16952813 0.91433293 -0.03196462
0.16953964 0.91433293 -0.03196454
0.17199604 0.91433293 -0.03194264
0.17200763 0.91433293 -0.03194254
0.17447798 0.91433293 -0.03191666
0.17448964 0.91433293 -0.03191654
0.17697392 0.91433293 -0.03188469
0.17698563 0.91433293 -0.03188454
0.17948485 0.91433293 -0.03184871
0.17949664 0.91433293 -0.03184854
0.18200879 0.91433293 -0.03180773
0.18202064 0.91433293 -0.03180754
0.18454771 0.91433293 -0.03176175
0.18455963 0.91433293 -0.03176154
0.18709966 0.91433293 -0.03171077
0.18711164 0.91433293 -0.03171053
0.18966658 0.91433293 -0.03165579
0.18967863 0.91433293 -0.03165554
0.19224653 0.91433293 -0.03159482
0.19225864 0.91433293 -0.03159454
0.19483946 0.91433293 -0.03152984
0.19485163 0.91433293 -0.03152954
0.19744640 0.91433293 -0.03145987
0.19745864 0.91433293 -0.03145954
0.20006633 0.91433293 -0.03138588
0.20007863 0.91433293 -0.03138554
0.20270028 0.91433293 -0.03130691
0.20271263 0.91433293 -0.03130654
0.20534719 0.91433293 -0.03122293
0.20535962 0.91433293 -0.03122254
0.20800714 0.91433293 -0.03113395
0.20801963 0.91433293 -0.03113354
0.21067909 0.91433293 -0.03104097
0.21069164 0.91433293 -0.03104054
0.21336502 0.91433293 -0.03094300
0.21337763 0.91433293 -0.03094254
0.21606298 0.91433293 -0.03084002
0.21607564 0.91433293 -0.03083954
0.21877391 0.91433293 -0.03073304
0.21878663 0.91433293 -0.03073254
0.22149786 0.91433293 -0.03062106
0.22151064 0.91433293 -0.03062054
0.22423379 0.91433293 -0.03050508
0.22424663 0.91433293 -0.03050454
0.22698174 0.91433293 -0.03038411
0.22699464 0.91433293 -0.03038354
0.22974268 0.91433293 -0.03025813
0.22975564 0.91433293 -0.03025754
0.23251462 0.91433293 -0.03012815
0.23252763 0.91433293 -0.03012754
0.23529956 0.91433293 -0.02999417
0.23531263 0.91433293 -0.02999354
0.23809550 0.91433293 -0.02985519
0.23810863 0.91433293 -0.02985454
0.24090344 0.91433293 -0.02971221
0.24091663 0.91433293 -0.02971154
0.24372340 0.91433293 -0.02956423
0.24373663 0.91433293 -0.02956354
0.24655434 0.91433293 -0.02941225
0.24656763 0.91433293 -0.02941154
0.24939728 0.91433293 -0.02925627
0.24941063 0.91433293 -0.02925553
0.25225124 0.91433293 -0.02909529
0.25226463 0.91433293 -0.02909454
0.25511617 0.91433293 -0.02893031
0.25512962 0.91433293 -0.02892954
0.25799214 0.91433293 -0.02876133
0.25800565 0.91433293 -0.02876054
0.26087906 0.91433293 -0.02858835
0.26089263 0.91433293 -0.02858754
0.26377702 0.91433293 -0.02841037
0.26379062 0.91433293 -0.02840954
0.26668599 0.91433293 -0.02822839
0.26669964 0.91433293 -0.02822754
0.26960490 0.91433293 -0.02804241
0.26961861 0.91433293 -0.02804154
0.27253491 0.91433293 -0.02785243
0.27254865 0.91433293 -0.02785154
0.27547581 0.91433293 -0.02765844
0.27548961 0.91433293 -0.02765754
0.27842579 0.91433293 -0.02746047
0.27843964 0.91433293 -0.02745954
0.28138676 0.91433293 -0.02725749
0.28140065 0.91433293 -0.02725654