TITLE = "cutData curvilinear distance mapping"
VARIABLES = "s" "variable Index"

ZONE T="SLICE_Y_0p9144_BINS01_KS_XXmm_CUTDATA"
0 0

ZONE T="SLICE_Y_0p9144_BINS03_KS_XXmm_CUTDATA"
0 0

ZONE T="SLICE_Y_0p9144_BINS07_KS_XXmm_CUTDATA"
0 0

ZONE T="SLICE_Y_0p9144_BINS15_KS_XXmm_CUTDATA"
0 0
