TITLE     = "Translation of CGNS file SOL_SURFACE_CUT_DATA_BF_LAGRANGIAN_CASE_241_IPW1_layer001_01_LAYERS.cgns"
VARIABLES = "CoordinateX_Iced"
"CoordinateY_Iced"
ZONE T="Exp.: rotated 180 degrees"
 STRANDID=0, SOLUTIONTIME=0
 I=2001, J=1, K=1, ZONETYPE=Ordered
 DATAPACKING=BLOCK
 DT=(SINGLE SINGLE )
 1.487931907E-01 1.486662030E-01 1.485645920E-01 1.484375894E-01 1.483360082E-01
 1.482090056E-01 1.481073946E-01 1.479804069E-01 1.478787959E-01 1.477517933E-01
 1.476502120E-01 1.475232095E-01 1.474215984E-01 1.472945958E-01 1.471929997E-01
 1.470659971E-01 1.469389945E-01 1.468373984E-01 1.467103958E-01 1.466087997E-01
 1.464818120E-01 1.463802010E-01 1.462531984E-01 1.461516023E-01 1.460245997E-01
 1.459230036E-01 1.457960010E-01 1.456944048E-01 1.455674022E-01 1.454658061E-01
 1.453388035E-01 1.452371925E-01 1.451101899E-01 1.449832022E-01 1.448816061E-01
 1.447546035E-01 1.446530074E-01 1.445260048E-01 1.444243938E-01 1.442974061E-01
 1.441957951E-01 1.440687925E-01 1.439672112E-01 1.438402086E-01 1.437385976E-01
 1.436115950E-01 1.435099989E-01 1.433829963E-01 1.432814002E-01 1.431543976E-01
 1.430273950E-01 1.429257989E-01 1.427988112E-01 1.426972002E-01 1.425701976E-01
 1.424686015E-01 1.423415989E-01 1.422400028E-01 1.421130002E-01 1.420114040E-01
 1.418844014E-01 1.417827904E-01 1.416558027E-01 1.415541917E-01 1.414271891E-01
 1.413256079E-01 1.411986053E-01 1.410716027E-01 1.409700066E-01 1.408430040E-01
 1.407413930E-01 1.406143904E-01 1.405127943E-01 1.403857917E-01 1.402841955E-01
 1.401572078E-01 1.400555968E-01 1.399285942E-01 1.398269981E-01 1.396999955E-01
 1.395983994E-01 1.394714117E-01 1.393443942E-01 1.392427981E-01 1.391158104E-01
 1.390141994E-01 1.388871968E-01 1.387856007E-01 1.386585981E-01 1.385570019E-01
 1.384299994E-01 1.383284032E-01 1.382014006E-01 1.380997896E-01 1.379728019E-01
 1.378712058E-01 1.377442032E-01 1.376426071E-01 1.375156045E-01 1.373886019E-01
 1.372870058E-01 1.371600032E-01 1.370583922E-01 1.369313896E-01 1.368298084E-01
 1.367028058E-01 1.366011947E-01 1.364742070E-01 1.363725960E-01 1.362455934E-01
 1.361439973E-01 1.360169947E-01 1.359153986E-01 1.357884109E-01 1.356867999E-01
 1.355597973E-01 1.354327947E-01 1.353311986E-01 1.352041960E-01 1.351025999E-01
 1.349755973E-01 1.348740011E-01 1.347469985E-01 1.346454024E-01 1.345183998E-01
 1.344167888E-01 1.342898011E-01 1.341882050E-01 1.340612024E-01 1.339596063E-01
 1.338326037E-01 1.337309927E-01 1.336040050E-01 1.334770024E-01 1.333753914E-01
 1.332483888E-01 1.331468076E-01 1.330198050E-01 1.329181939E-01 1.327912062E-01
 1.326895952E-01 1.325625926E-01 1.324609965E-01 1.323339939E-01 1.322323978E-01
 1.321054101E-01 1.320037991E-01 1.318767965E-01 1.317752004E-01 1.316481978E-01
 1.315211952E-01 1.314195991E-01 1.312925965E-01 1.311910003E-01 1.310639977E-01
 1.309624016E-01 1.308353990E-01 1.307338029E-01 1.306068003E-01 1.305052042E-01
 1.303782016E-01 1.302766055E-01 1.301496029E-01 1.300479919E-01 1.299209893E-01
 1.298194081E-01 1.296924055E-01 1.295654029E-01 1.294638067E-01 1.293368042E-01
 1.292351931E-01 1.291082054E-01 1.290065944E-01 1.288795918E-01 1.287780106E-01
 1.286510080E-01 1.285493970E-01 1.284224093E-01 1.283207983E-01 1.281937957E-01
 1.280667931E-01 1.279651970E-01 1.278381944E-01 1.277365983E-01 1.276096106E-01
 1.275079995E-01 1.273809969E-01 1.272540092E-01 1.271523982E-01 1.270253956E-01
 1.269237995E-01 1.267967969E-01 1.266952008E-01 1.265681982E-01 1.264666021E-01
 1.263395995E-01 1.262379885E-01 1.261110008E-01 1.260094047E-01 1.259077936E-01
 1.257808059E-01 1.256538033E-01 1.255521923E-01 1.254252046E-01 1.253235936E-01
 1.251965910E-01 1.250950098E-01 1.249679998E-01 1.248663962E-01 1.247393936E-01
 1.246378049E-01 1.245108023E-01 1.244091913E-01 1.242822036E-01 1.241806000E-01
 1.240535975E-01 1.239266023E-01 1.238249987E-01 1.236979961E-01 1.235964075E-01
 1.234694049E-01 1.233677939E-01 1.232408062E-01 1.231392026E-01 1.230122000E-01
 1.229106039E-01 1.227836013E-01 1.226819977E-01 1.225549951E-01 1.224533990E-01
 1.223263964E-01 1.222247928E-01 1.220978051E-01 1.219962016E-01 1.218691990E-01
 1.217676029E-01 1.216406003E-01 1.215135977E-01 1.214120090E-01 1.212849990E-01
 1.211833954E-01 1.210563928E-01 1.209548041E-01 1.208278015E-01 1.207261980E-01
 1.205992028E-01 1.204722002E-01 1.203705966E-01 1.202436090E-01 1.201419979E-01
 1.200403944E-01 1.199134067E-01 1.197864041E-01 1.196848005E-01 1.195577979E-01
 1.194562018E-01 1.193291992E-01 1.192275956E-01 1.191006005E-01 1.189989969E-01
 1.188719943E-01 1.187704057E-01 1.186434031E-01 1.185417920E-01 1.184148043E-01
 1.183132008E-01 1.181861982E-01 1.180591956E-01 1.179575995E-01 1.178305969E-01
 1.177290082E-01 1.176020056E-01 1.175003946E-01 1.173733920E-01 1.172718033E-01
 1.171448007E-01 1.170431972E-01 1.169162020E-01 1.168145984E-01 1.166875958E-01
 1.165860072E-01 1.164590046E-01 1.163573936E-01 1.162304059E-01 1.161034033E-01
 1.160017997E-01 1.158747971E-01 1.157732010E-01 1.156461984E-01 1.155445948E-01
 1.154176071E-01 1.153159961E-01 1.151889935E-01 1.150620058E-01 1.149604023E-01
 1.148333997E-01 1.147318035E-01 1.146048009E-01 1.144777983E-01 1.143761948E-01
 1.142492071E-01 1.141475961E-01 1.140205935E-01 1.138936058E-01 1.137920022E-01
 1.136649996E-01 1.135634035E-01 1.134364009E-01 1.133347973E-01 1.132077947E-01
 1.131061986E-01 1.129791960E-01 1.128775924E-01 1.127506047E-01 1.126490012E-01
 1.125474051E-01 1.124204025E-01 1.123187989E-01 1.122172028E-01 1.120902002E-01
 1.119885966E-01 1.118615940E-01 1.117600054E-01 1.116330028E-01 1.115060002E-01
 1.114044040E-01 1.112774014E-01 1.111757979E-01 1.110488027E-01 1.109218001E-01
 1.108201966E-01 1.106931940E-01 1.105916053E-01 1.104646027E-01 1.103376001E-01
 1.102360040E-01 1.101090014E-01 1.099819988E-01 1.098804027E-01 1.097787991E-01
 1.096771955E-01 1.095502079E-01 1.094485968E-01 1.093215942E-01 1.091945916E-01
 1.090930030E-01 1.089660004E-01 1.088643968E-01 1.087374017E-01 1.086103991E-01
 1.085087955E-01 1.083818078E-01 1.082548052E-01 1.081531942E-01 1.080261916E-01
 1.079246029E-01 1.077976003E-01 1.076959968E-01 1.075690016E-01 1.074673980E-01
 1.073658094E-01 1.072388068E-01 1.071371958E-01 1.070101932E-01 1.069086045E-01
 1.067816019E-01 1.066799983E-01 1.065530032E-01 1.064513996E-01 1.063497961E-01
 1.062228009E-01 1.061211973E-01 1.059941947E-01 1.058672071E-01 1.057656035E-01
 1.056386009E-01 1.055370048E-01 1.054100022E-01 1.053083986E-01 1.051813960E-01
 1.050797999E-01 1.049527973E-01 1.048511937E-01 1.047496051E-01 1.046226025E-01
 1.045209914E-01 1.043940037E-01 1.042924002E-01 1.041653976E-01 1.040384024E-01
 1.039367989E-01 1.038097963E-01 1.037082076E-01 1.035812050E-01 1.034542024E-01
 1.033525914E-01 1.032256037E-01 1.031240001E-01 1.029969975E-01 1.028700024E-01
 1.027683988E-01 1.026413962E-01 1.025398076E-01 1.024128050E-01 1.022858024E-01
 1.021841913E-01 1.020572037E-01 1.019556001E-01 1.018285975E-01 1.017270014E-01
 1.015999988E-01 1.014729962E-01 1.013714001E-01 1.012697965E-01 1.011428013E-01
 1.010411978E-01 1.009396017E-01 1.008125991E-01 1.007109955E-01 1.005840003E-01
 1.004824042E-01 1.003554016E-01 1.002283990E-01 1.001267955E-01 9.999980032E-02
 9.987279773E-02 9.977120161E-02 9.964419901E-02 9.954259545E-02 9.941560030E-02
 9.928859770E-02 9.918700159E-02 9.905999899E-02 9.893299639E-02 9.883140028E-02
 9.870439768E-02 9.860280156E-02 9.847579896E-02 9.837419540E-02 9.824720025E-02
 9.812019765E-02 9.801860154E-02 9.789159894E-02 9.778999537E-02 9.768839926E-02
 9.758680314E-02 9.748519957E-02 9.738360345E-02 9.725660086E-02 9.712959826E-02
 9.702799469E-02 9.692639858E-02 9.679940343E-02 9.667240083E-02 9.657080472E-02
 9.644379467E-02 9.631679952E-02 9.621520340E-02 9.608820081E-02 9.598660469E-02
 9.585959464E-02 9.573259950E-02 9.563100338E-02 9.550400078E-02 9.537700564E-02
 9.527539462E-02 9.514839947E-02 9.504680336E-02 9.491980076E-02 9.481820464E-02
 9.469119459E-02 9.458959848E-02 9.448800236E-02 9.438639879E-02 9.425939620E-02
 9.413240105E-02 9.403079748E-02 9.390380234E-02 9.380219877E-02 9.367519617E-02
 9.354820102E-02 9.344659746E-02 9.331960231E-02 9.319259971E-02 9.309099615E-02
 9.296400100E-02 9.283699840E-02 9.273540229E-02 9.260839969E-02 9.248140454E-02
 9.237980098E-02 9.225279838E-02 9.212580323E-02 9.202419966E-02 9.189719707E-02
 9.177019447E-02 9.166859835E-02 9.154160321E-02 9.143999964E-02 9.133839607E-02
 9.121140093E-02 9.110979736E-02 9.100820124E-02 9.093199670E-02 9.083040059E-02
 9.070340544E-02 9.060179442E-02 9.047479928E-02 9.037320316E-02 9.024620056E-02
 9.014459699E-02 9.001759440E-02 8.991599828E-02 8.978900313E-02 8.968739957E-02
 8.956039697E-02 8.945880085E-02 8.933179826E-02 8.920480311E-02 8.910319954E-02
 8.897619694E-02 8.884919435E-02 8.872219920E-02 8.862060308E-02 8.849360049E-02
 8.839199692E-02 8.826499432E-02 8.813799918E-02 8.803640306E-02 8.790940046E-02
 8.778240532E-02 8.768079430E-02 8.755379915E-02 8.742679656E-02 8.732520044E-02
 8.719820529E-02 8.707120270E-02 8.696959913E-02 8.684259653E-02 8.671560138E-02
 8.661400527E-02 8.648700267E-02 8.638539910E-02 8.625839651E-02 8.615680039E-02
 8.602980524E-02 8.592819422E-02 8.582659811E-02 8.569960296E-02 8.559799939E-02
 8.547099680E-02 8.536940068E-02 8.526780456E-02 8.514080197E-02 8.503919840E-02
 8.493760228E-02 8.481059968E-02 8.470900357E-02 8.460740000E-02 8.448039740E-02
 8.437880129E-02 8.427720517E-02 8.417559415E-02 8.404859900E-02 8.394700289E-02
 8.384539932E-02 8.371839672E-02 8.361680061E-02 8.348979801E-02 8.338820189E-02
 8.326119930E-02 8.313419670E-02 8.303260058E-02 8.290559798E-02 8.277860284E-02
 8.267699927E-02 8.254999667E-02 8.242299408E-02 8.229599893E-02 8.219440281E-02
 8.206740022E-02 8.194040507E-02 8.183879405E-02 8.171179891E-02 8.161020279E-02
 8.148320019E-02 8.135620505E-02 8.125459403E-02 8.112759888E-02 8.100059628E-02
 8.089900017E-02 8.077200502E-02 8.067040145E-02 8.054339886E-02 8.041639626E-02
 8.031480014E-02 8.018780500E-02 8.008620143E-02 7.995919883E-02 7.985760272E-02
 7.973060012E-02 7.962899655E-02 7.950200140E-02 7.937499881E-02 7.927340269E-02
 7.914640009E-02 7.904479653E-02 7.891780138E-02 7.879079878E-02 7.868920267E-02
 7.858759910E-02 7.848599553E-02 7.838439941E-02 7.825740427E-02 7.813040167E-02
 7.802879810E-02 7.790179551E-02 7.780019939E-02 7.767320424E-02 7.757160068E-02
 7.744459808E-02 7.734300196E-02 7.721599936E-02 7.711440325E-02 7.701279968E-02
 7.691120356E-02 7.678420097E-02 7.668260485E-02 7.655559480E-02 7.642859966E-02
 7.632700354E-02 7.620000094E-02 7.607299834E-02 7.594600320E-02 7.584439963E-02
 7.574280351E-02 7.561580092E-02 7.551420480E-02 7.538719475E-02 7.528559864E-02
 7.515860349E-02 7.505699992E-02 7.493000478E-02 7.480299473E-02 7.470139861E-02
 7.457440346E-02 7.444740087E-02 7.434580475E-02 7.421879470E-02 7.409179956E-02
 7.399020344E-02 7.386320084E-02 7.373620570E-02 7.363459468E-02 7.350759953E-02
 7.338059694E-02 7.325360179E-02 7.315200567E-02 7.302500308E-02 7.289800048E-02
 7.279639691E-02 7.266940176E-02 7.254239917E-02 7.244080305E-02 7.231380045E-02
 7.221219689E-02 7.208520174E-02 7.198360562E-02 7.185660303E-02 7.175499946E-02
 7.162799686E-02 7.152640074E-02 7.142480463E-02 7.129779458E-02 7.119619846E-02
 7.109460235E-02 7.096759975E-02 7.086599618E-02 7.076440006E-02 7.063739747E-02
 7.053580135E-02 7.040879875E-02 7.030719519E-02 7.018020004E-02 7.007860392E-02
 6.995160133E-02 6.982459873E-02 6.972299516E-02 6.959600002E-02 6.946899742E-02
 6.936740130E-02 6.924039871E-02 6.913879514E-02 6.901179999E-02 6.891020387E-02
 6.880860031E-02 6.868159771E-02 6.858000159E-02 6.847840548E-02 6.837679446E-02
 6.824979931E-02 6.812279671E-02 6.802120060E-02 6.791959703E-02 6.779259443E-02
 6.766559929E-02 6.756400317E-02 6.743700057E-02 6.731000543E-02 6.720839441E-02
 6.708139926E-02 6.695439667E-02 6.685280055E-02 6.672580540E-02 6.659880280E-02
 6.649719924E-02 6.637019664E-02 6.624320149E-02 6.614160538E-02 6.601460278E-02
 6.588760018E-02 6.578599662E-02 6.565900147E-02 6.555740535E-02 6.543040276E-02
 6.532879919E-02 6.522720307E-02 6.510020047E-02 6.499859691E-02 6.487159431E-02
 6.476999819E-02 6.464300305E-02 6.454139948E-02 6.441439688E-02 6.431280077E-02
 6.421120465E-02 6.408420205E-02 6.398259848E-02 6.388100237E-02 6.375399977E-02
 6.365240365E-02 6.355080009E-02 6.344919652E-02 6.334760040E-02 6.324599683E-02
 6.314440072E-02 6.301739812E-02 6.289040297E-02 6.278879941E-02 6.266179681E-02
 6.253479421E-02 6.243319809E-02 6.230620295E-02 6.217920035E-02 6.205220148E-02
 6.195059791E-02 6.182359904E-02 6.169659644E-02 6.156960130E-02 6.146800146E-02
 6.134099886E-02 6.121400371E-02 6.111239642E-02 6.098540127E-02 6.085839868E-02
 6.075679883E-02 6.062980369E-02 6.052819639E-02 6.040120125E-02 6.029960141E-02
 6.017259881E-02 6.007099897E-02 5.994399637E-02 5.984240025E-02 5.974080041E-02
 5.961379781E-02 5.951219797E-02 5.941059813E-02 5.928360298E-02 5.915660039E-02
 5.905500054E-02 5.892799795E-02 5.880100280E-02 5.869940296E-02 5.857240036E-02
 5.847080052E-02 5.834379792E-02 5.821680278E-02 5.808980018E-02 5.808980018E-02
 5.796280131E-02 5.786120147E-02 5.773419887E-02 5.760719627E-02 5.750560015E-02
 5.737860128E-02 5.727700144E-02 5.714999884E-02 5.704840273E-02 5.694680288E-02
 5.681980029E-02 5.671820045E-02 5.659119785E-02 5.648959801E-02 5.636260286E-02
 5.623560026E-02 5.610860139E-02 5.600699782E-02 5.588000268E-02 5.577840284E-02
 5.565140024E-02 5.552440137E-02 5.539739877E-02 5.527040362E-02 5.516880006E-02
 5.504180118E-02 5.491479859E-02 5.481319875E-02 5.468620360E-02 5.458460003E-02
 5.448300019E-02 5.438140035E-02 5.427980050E-02 5.417819694E-02 5.405120179E-02
 5.394960195E-02 5.382259935E-02 5.369560048E-02 5.356859788E-02 5.346700177E-02
 5.333999917E-02 5.321300030E-02 5.308599770E-02 5.298439786E-02 5.285740271E-02
 5.275579914E-02 5.262880027E-02 5.252720043E-02 5.240019783E-02 5.227320269E-02
 5.217159912E-02 5.204460025E-02 5.194300041E-02 5.181599781E-02 5.168900266E-02
 5.158739910E-02 5.146040022E-02 5.133339763E-02 5.123179778E-02 5.113020167E-02
 5.100319907E-02 5.090159923E-02 5.079999939E-02 5.069839954E-02 5.059679970E-02
 5.049519986E-02 5.039360002E-02 5.029200017E-02 5.016500130E-02 5.006339774E-02
 4.993639886E-02 4.983479902E-02 4.970780015E-02 4.960620031E-02 4.947919771E-02
 4.935219884E-02 4.925059900E-02 4.912360013E-02 4.902200028E-02 4.889499769E-02
 4.876799881E-02 4.866639897E-02 4.853940010E-02 4.843780026E-02 4.831079766E-02
 4.818379879E-02 4.805679992E-02 4.795520008E-02 4.782820120E-02 4.770120233E-02
 4.759959877E-02 4.747259989E-02 4.737100005E-02 4.724400118E-02 4.714239761E-02
 4.701539874E-02 4.691379890E-02 4.678680003E-02 4.668520018E-02 4.655819759E-02
 4.645660147E-02 4.632959887E-02 4.622800276E-02 4.610100016E-02 4.597399756E-02
 4.587240145E-02 4.574539885E-02 4.561839998E-02 4.551680014E-02 4.538979754E-02
 4.528820142E-02 4.516119882E-02 4.505960271E-02 4.493260011E-02 4.483100027E-02
 4.472940043E-02 4.462780058E-02 4.452620074E-02 4.442459717E-02 4.432300106E-02
 4.422140121E-02 4.411980137E-02 4.399279878E-02 4.389120266E-02 4.376420006E-02
 4.366260022E-02 4.353560135E-02 4.343400151E-02 4.330700263E-02 4.320539907E-02
 4.307840019E-02 4.295140132E-02 4.284980148E-02 4.272280261E-02 4.262119904E-02
 4.249420017E-02 4.239260033E-02 4.226560146E-02 4.213860258E-02 4.201159999E-02
 4.188460112E-02 4.178300127E-02 4.165599868E-02 4.152899981E-02 4.140200093E-02
 4.130040109E-02 4.117340222E-02 4.107179865E-02 4.094479978E-02 4.084319994E-02
 4.071620107E-02 4.061460122E-02 4.051300138E-02 4.041139781E-02 4.028439894E-02
 4.018279910E-02 4.005580023E-02 3.995420039E-02 3.982719779E-02 3.970019892E-02
 3.959859908E-02 3.947160020E-02 3.934460133E-02 3.924299777E-02 3.911599889E-02
 3.901439905E-02 3.888740018E-02 3.878580034E-02 3.865879774E-02 3.855720162E-02
 3.843019903E-02 3.832859918E-02 3.820160031E-02 3.807459772E-02 3.797300160E-02
 3.784599900E-02 3.771900013E-02 3.761740029E-02 3.749039769E-02 3.738880157E-02
 3.726179898E-02 3.716020286E-02 3.703320026E-02 3.693160042E-02 3.683000058E-02
 3.672840074E-02 3.662680089E-02 3.652519733E-02 3.642360121E-02 3.629660234E-02
 3.616959974E-02 3.606799990E-02 3.594099730E-02 3.581399843E-02 3.568699956E-02
 3.558539972E-02 3.545840085E-02 3.533140197E-02 3.522979841E-02 3.510279953E-02
 3.500119969E-02 3.489959985E-02 3.477259725E-02 3.467100114E-02 3.456939757E-02
 3.446780145E-02 3.434079885E-02 3.423920274E-02 3.411220014E-02 3.401060030E-02
 3.388360143E-02 3.375659883E-02 3.365500271E-02 3.352800012E-02 3.340100124E-02
 3.329940140E-02 3.317239881E-02 3.304539993E-02 3.294380009E-02 3.281680122E-02
 3.268979862E-02 3.258819878E-02 3.246119991E-02 3.235960007E-02 3.223260120E-02
 3.213100135E-02 3.202940151E-02 3.190240264E-02 3.180079907E-02 3.169919923E-02
 3.157220036E-02 3.147060052E-02 3.136900067E-02 3.126739711E-02 3.114039823E-02
 3.103880025E-02 3.093720227E-02 3.081020154E-02 3.070859984E-02 3.058159910E-02
 3.045460023E-02 3.035300225E-02 3.022600152E-02 3.012439981E-02 2.999739908E-02
 2.987040021E-02 2.976880036E-02 2.964180149E-02 2.954019979E-02 2.941319905E-02
 2.928620018E-02 2.918460034E-02 2.905760147E-02 2.893060073E-02 2.880359814E-02
 2.867659926E-02 2.857499942E-02 2.844800055E-02 2.832099982E-02 2.819400094E-02
 2.809239924E-02 2.799079940E-02 2.786380053E-02 2.776220068E-02 2.763520181E-02
 2.753360011E-02 2.740659937E-02 2.730500139E-02 2.717800066E-02 2.707639895E-02
 2.694940008E-02 2.684780024E-02 2.674619853E-02 2.661919966E-02 2.651759982E-02
 2.641599812E-02 2.628899924E-02 2.618740126E-02 2.608579956E-02 2.595879883E-02
 2.585720085E-02 2.573020011E-02 2.562859841E-02 2.552700043E-02 2.539999969E-02
 2.527300082E-02 2.517139912E-02 2.504440024E-02 2.491739951E-02 2.479040064E-02
 2.468880080E-02 2.456180006E-02 2.446020022E-02 2.433319949E-02 2.423159964E-02
 2.410460077E-02 2.400299907E-02 2.390139922E-02 2.377440035E-02 2.364739962E-02
 2.354579978E-02 2.341879904E-02 2.331719920E-02 2.319020033E-02 2.308859862E-02
 2.296159975E-02 2.285999991E-02 2.273299918E-02 2.263139933E-02 2.250439860E-02
 2.240280062E-02 2.227579989E-02 2.214879915E-02 2.202180028E-02 2.189479955E-02
 2.179319970E-02 2.166619897E-02 2.153920010E-02 2.143760026E-02 2.131059952E-02
 2.120899968E-02 2.108199894E-02 2.098039910E-02 2.087880112E-02 2.077720128E-02
 2.067559958E-02 2.054860070E-02 2.044700086E-02 2.032000013E-02 2.019300126E-02
 2.009139955E-02 1.996440068E-02 1.983739994E-02 1.973580010E-02 1.960880123E-02
 1.948180050E-02 1.938020065E-02 1.925319992E-02 1.915160008E-02 1.902460121E-02
 1.889760047E-02 1.879600063E-02 1.866899990E-02 1.856740005E-02 1.844040118E-02
 1.833879948E-02 1.823719963E-02 1.811020076E-02 1.800859906E-02 1.788160019E-02
 1.778000034E-02 1.765299961E-02 1.752600074E-02 1.739900000E-02 1.727199927E-02
 1.717039943E-02 1.704340056E-02 1.691639982E-02 1.678940095E-02 1.668779925E-02
 1.656080037E-02 1.643379964E-02 1.633219980E-02 1.620520093E-02 1.607820019E-02
 1.597660035E-02 1.584959961E-02 1.574799977E-02 1.562099997E-02 1.549400017E-02
 1.536700036E-02 1.524000056E-02 1.511300076E-02 1.501140092E-02 1.488440018E-02
 1.475739945E-02 1.465580054E-02 1.452880073E-02 1.442720089E-02 1.432560012E-02
 1.419860031E-02 1.409700047E-02 1.397000067E-02 1.386839990E-02 1.374140009E-02
 1.363980025E-02 1.351280045E-02 1.341119967E-02 1.328419987E-02 1.318260003E-02
 1.305560023E-02 1.292860042E-02 1.280160062E-02 1.267459989E-02 1.254760008E-02
 1.242059935E-02 1.231900044E-02 1.219199970E-02 1.206499990E-02 1.196340006E-02
 1.183639932E-02 1.173480041E-02 1.163320057E-02 1.153159980E-02 1.142999995E-02
 1.130300015E-02 1.117600035E-02 1.104899962E-02 1.094739977E-02 1.082039997E-02
 1.069340017E-02 1.056640036E-02 1.046479959E-02 1.033779979E-02 1.021079998E-02
 1.008380018E-02 9.956799448E-03 9.804400615E-03 9.677399881E-03 9.550400078E-03
 9.423399344E-03 9.296399541E-03 9.169399738E-03 9.067799896E-03 8.940800093E-03
 8.813800290E-03 8.686800487E-03 8.585199714E-03 8.458199911E-03 8.331200108E-03
 8.178800344E-03 8.051799610E-03 7.924799807E-03 7.772400044E-03 7.645399775E-03
 7.518399972E-03 7.391400170E-03 7.289799862E-03 7.162800059E-03 7.035800256E-03
 6.908800453E-03 6.781799719E-03 6.654799916E-03 6.527800113E-03 6.400800310E-03
 6.273800042E-03 6.146799773E-03 6.019799970E-03 5.918199662E-03 5.791199859E-03
 5.664200056E-03 5.537199788E-03 5.410199985E-03 5.308600143E-03 5.181599874E-03
 5.029200111E-03 4.876799881E-03 4.749800079E-03 4.597399849E-03 4.470400047E-03
 4.317999817E-03 4.191000015E-03 4.063999746E-03 3.936999943E-03 3.784600180E-03
 3.657599911E-03 3.530599875E-03 3.403600072E-03 3.276599804E-03 3.149600001E-03
 3.022599965E-03 2.895599930E-03 2.768599894E-03 2.641600091E-03 2.489199862E-03
 2.362200059E-03 2.209799830E-03 2.057400066E-03 1.930399914E-03 1.778000034E-03
 1.600200078E-03 1.447799965E-03 1.295399969E-03 1.117600012E-03 9.651999571E-04
 7.874000003E-04 6.350000040E-04 4.571999889E-04 3.047999926E-04 1.269999921E-04
 -5.080000119E-05 -2.285999944E-04 -3.809999907E-04 -5.333999870E-04 -6.604000228E-04
 -8.381999796E-04 -1.015999936E-03 -1.193800010E-03 -1.371600083E-03 -1.549400040E-03
 -1.727200113E-03 -1.905000070E-03 -2.082800027E-03 -2.260599984E-03 -2.463800134E-03
 -2.641600091E-03 -2.844800008E-03 -3.073399886E-03 -3.251200076E-03 -3.454400226E-03
 -3.606800223E-03 -3.759199986E-03 -3.911599983E-03 -4.063999746E-03 -4.216399975E-03
 -4.343400244E-03 -4.495800007E-03 -4.648199771E-03 -4.876799881E-03 -5.156199913E-03
 -5.486400332E-03 -5.816600285E-03 -6.146799773E-03 -6.426199805E-03 -6.680200342E-03
 -6.908800453E-03 -7.112000138E-03 -7.315199822E-03 -7.518399972E-03 -7.721599657E-03
 -7.950199768E-03 -8.153400384E-03 -8.382000029E-03 -8.610599674E-03 -8.813800290E-03
 -9.042399935E-03 -9.245599620E-03 -9.474200197E-03 -9.702799842E-03 -9.905999526E-03
 -1.013460010E-02 -1.033779979E-02 -1.051560044E-02 -1.069340017E-02 -1.084579993E-02
 -1.097280066E-02 -1.104899962E-02 -1.112519950E-02 -1.115060039E-02 -1.112519950E-02
 -1.109980047E-02 -1.102359965E-02 -1.094739977E-02 -1.084579993E-02 -1.074420009E-02
 -1.064260025E-02 -1.051560044E-02 -1.041399967E-02 -1.028699987E-02 -1.016000006E-02
 -1.003300026E-02 -9.880599566E-03 -9.753599763E-03 -9.601199999E-03 -9.423399344E-03
 -9.271000512E-03 -9.144000709E-03 -8.991600014E-03 -8.813800290E-03 -8.661399595E-03
 -8.458199911E-03 -8.280400187E-03 -8.051799610E-03 -7.823199965E-03 -7.543799933E-03
 -7.315199822E-03 -7.112000138E-03 -6.985000335E-03 -6.883400027E-03 -6.781799719E-03
 -6.680200342E-03 -6.603999529E-03 -6.502400152E-03 -6.426199805E-03 -6.299200002E-03
 -6.172200199E-03 -6.070599891E-03 -5.943600088E-03 -5.791199859E-03 -5.638800096E-03
 -5.486400332E-03 -5.308600143E-03 -5.156199913E-03 -4.978399724E-03 -4.825999960E-03
 -4.699000157E-03 -4.572000355E-03 -4.445000086E-03 -4.343400244E-03 -4.216399975E-03
 -4.089400172E-03 -3.962399904E-03 -3.860799829E-03 -3.733800026E-03 -3.606800223E-03
 -3.505199915E-03 -3.378200112E-03 -3.251200076E-03 -3.124200040E-03 -2.997200005E-03
 -2.870199969E-03 -2.743200166E-03 -2.616199898E-03 -2.489199862E-03 -2.387600020E-03
 -2.286000177E-03 -2.184400102E-03 -2.082800027E-03 -1.981199952E-03 -1.879599993E-03
 -1.752599957E-03 -1.650999882E-03 -1.523999963E-03 -1.397000044E-03 -1.270000008E-03
 -1.143000089E-03 -9.905999759E-04 -8.381999796E-04 -7.365999627E-04 -6.095999852E-04
 -5.079999682E-04 -4.064000095E-04 -2.794000029E-04 -1.778000005E-04 -7.619999815E-05
 2.540000060E-05 1.269999921E-04 2.285999944E-04 3.302000114E-04 4.318000283E-04
 5.333999870E-04 6.350000040E-04 7.365999627E-04 8.381999796E-04 9.397999966E-04
 1.041400013E-03 1.143000089E-03 1.219199970E-03 1.295399969E-03 1.371600083E-03
 1.473199925E-03 1.549400040E-03 1.650999882E-03 1.752599957E-03 1.879599993E-03
 2.006600145E-03 2.133599948E-03 2.286000177E-03 2.412999980E-03 2.565399976E-03
 2.717799973E-03 2.844800008E-03 2.997200005E-03 3.124200040E-03 3.276599804E-03
 3.403600072E-03 3.530599875E-03 3.632200183E-03 3.759199986E-03 3.860799829E-03
 3.962399904E-03 4.063999746E-03 4.165600054E-03 4.241799936E-03 4.343400244E-03
 4.445000086E-03 4.546599928E-03 4.648199771E-03 4.749800079E-03 4.851399921E-03
 4.978399724E-03 5.080000032E-03 5.206999835E-03 5.308600143E-03 5.435599945E-03
 5.562599748E-03 5.664200056E-03 5.791199859E-03 5.892799702E-03 5.994400010E-03
 6.095999852E-03 6.223000120E-03 6.324599963E-03 6.451600231E-03 6.578600034E-03
 6.705599837E-03 6.807200145E-03 6.934199948E-03 7.035800256E-03 7.162800059E-03
 7.264400367E-03 7.365999743E-03 7.467600051E-03 7.594599854E-03 7.696200162E-03
 7.797800470E-03 7.899399847E-03 8.000999689E-03 8.102600463E-03 8.229600266E-03
 8.331200108E-03 8.458199911E-03 8.585199714E-03 8.712199517E-03 8.839199319E-03
 8.966200054E-03 9.093199857E-03 9.194799699E-03 9.271000512E-03 9.372599423E-03
 9.474200197E-03 9.550400078E-03 9.651999921E-03 9.778999723E-03 9.880599566E-03
 9.982200339E-03 1.010920014E-02 1.023619995E-02 1.036319975E-02 1.051560044E-02
 1.064260025E-02 1.076960005E-02 1.092199981E-02 1.107439958E-02 1.120140031E-02
 1.135380007E-02 1.148079988E-02 1.155700069E-02 1.160779968E-02 1.168400049E-02
 1.173480041E-02 1.181100029E-02 1.188720018E-02 1.196340006E-02 1.203959994E-02
 1.214119978E-02 1.226820052E-02 1.236979943E-02 1.249680016E-02 1.262379996E-02
 1.275079977E-02 1.287780050E-02 1.300480030E-02 1.313180011E-02 1.323340088E-02
 1.333499979E-02 1.346199960E-02 1.356359944E-02 1.369059924E-02 1.379220001E-02
 1.391919982E-02 1.404619962E-02 1.414779946E-02 1.427479926E-02 1.440179907E-02
 1.450339984E-02 1.463039964E-02 1.475739945E-02 1.485899929E-02 1.498599909E-02
 1.511300076E-02 1.521459967E-02 1.529079955E-02 1.539240032E-02 1.544319931E-02
 1.546860114E-02 1.551940013E-02 1.559560094E-02 1.567179896E-02 1.577340066E-02
 1.590039954E-02 1.602740027E-02 1.615439914E-02 1.628139988E-02 1.643379964E-02
 1.656080037E-02 1.668779925E-02 1.681479998E-02 1.694180071E-02 1.709419861E-02
 1.722119935E-02 1.734820008E-02 1.750059985E-02 1.762760058E-02 1.778000034E-02
 1.790699922E-02 1.803399995E-02 1.813559979E-02 1.823719963E-02 1.833879948E-02
 1.844040118E-02 1.854200102E-02 1.864360087E-02 1.874519885E-02 1.882139966E-02
 1.892299950E-02 1.902460121E-02 1.912620105E-02 1.922780089E-02 1.932939887E-02
 1.943099871E-02 1.955799945E-02 1.965959929E-02 1.978660002E-02 1.991359890E-02
 2.004059963E-02 2.019300126E-02 2.032000013E-02 2.047239989E-02 2.059940062E-02
 2.072639950E-02 2.085340023E-02 2.098039910E-02 2.110739984E-02 2.123440057E-02
 2.136140130E-02 2.148840018E-02 2.161540091E-02 2.174239978E-02 2.184399962E-02
 2.197100036E-02 2.207260020E-02 2.219960093E-02 2.230120078E-02 2.242819965E-02
 2.252980135E-02 2.265680023E-02 2.275840007E-02 2.283459902E-02 2.291079983E-02
 2.301239967E-02 2.308859862E-02 2.319020033E-02 2.331719920E-02 2.339340001E-02
 2.344419993E-02 2.352040075E-02 2.357119881E-02 2.364739962E-02 2.374899946E-02
 2.387600020E-02 2.400299907E-02 2.410460077E-02 2.423159964E-02 2.435860038E-02
 2.448559925E-02 2.458719909E-02 2.471419983E-02 2.481579967E-02 2.494280040E-02
 2.504440024E-02 2.514600009E-02 2.527300082E-02 2.539999969E-02 2.552700043E-02
 2.565399930E-02 2.578100003E-02 2.590799890E-02 2.603499964E-02 2.616199851E-02
 2.626360022E-02 2.636520006E-02 2.649219893E-02 2.659380063E-02 2.672080137E-02
 2.684780024E-02 2.692399919E-02 2.700020000E-02 2.707639895E-02 2.710180171E-02
 2.722880058E-02 2.735580131E-02 2.745739929E-02 2.758440003E-02 2.771139890E-02
 2.783839963E-02 2.796539851E-02 2.806700021E-02 2.819400094E-02 2.832099982E-02
 2.844800055E-02 2.857499942E-02 2.870200016E-02 2.882899903E-02 2.895599976E-02
 2.908299863E-02 2.920999937E-02 2.933700010E-02 2.946399897E-02 2.959099971E-02
 2.971799858E-02 2.984499931E-02 2.997199818E-02 3.004819900E-02 3.009899892E-02
 3.020060062E-02 3.030219860E-02 3.042919934E-02 3.053080104E-02 3.065779991E-02
 3.078480065E-02 3.091179952E-02 3.103880025E-02 3.116579913E-02 3.126739711E-02
 3.136900067E-02 3.149599954E-02 3.159759939E-02 3.169919923E-02 3.182620183E-02
 3.192779794E-02 3.205480054E-02 3.215640038E-02 3.228339925E-02 3.238499910E-02
 3.251199797E-02 3.261360154E-02 3.274060041E-02 3.284220025E-02 3.294380009E-02
 3.304539993E-02 3.314699978E-02 3.324859962E-02 3.332480043E-02 3.342640027E-02
 3.352800012E-02 3.365500271E-02 3.378200158E-02 3.390900046E-02 3.403599933E-02
 3.418839723E-02 3.434079885E-02 3.444239870E-02 3.456939757E-02 3.467100114E-02
 3.479800001E-02 3.489959985E-02 3.502659872E-02 3.512819856E-02 3.522979841E-02
 3.535679728E-02 3.545840085E-02 3.556000069E-02 3.568699956E-02 3.578859940E-02
 3.589019924E-02 3.601719812E-02 3.611880168E-02 3.624580055E-02 3.637279943E-02
 3.647439927E-02 3.660139814E-02 3.672840074E-02 3.683000058E-02 3.693160042E-02
 3.703320026E-02 3.713480011E-02 3.723639995E-02 3.733799979E-02 3.746500239E-02
 3.756659850E-02 3.769359738E-02 3.782059997E-02 3.792219982E-02 3.804920241E-02
 3.817620128E-02 3.827779740E-02 3.837940097E-02 3.850639984E-02 3.860799968E-02
 3.873499855E-02 3.883660212E-02 3.896360099E-02 3.906520084E-02 3.916680068E-02
 3.929379955E-02 3.939539939E-02 3.952239826E-02 3.962399811E-02 3.972560167E-02
 3.982719779E-02 3.992880136E-02 4.003040120E-02 4.013200104E-02 4.023360088E-02
 4.036059976E-02 4.046219960E-02 4.056379944E-02 4.069079831E-02 4.079239815E-02
 4.091939703E-02 4.104639962E-02 4.114799947E-02 4.127499834E-02 4.137659818E-02
 4.150359705E-02 4.163059965E-02 4.173219949E-02 4.185919836E-02 4.198620096E-02
 4.208779708E-02 4.221479967E-02 4.231639951E-02 4.244339839E-02 4.257040098E-02
 4.267199710E-02 4.279899970E-02 4.290059954E-02 4.300219938E-02 4.312919825E-02
 4.323080182E-02 4.335780069E-02 4.345940053E-02 4.356100038E-02 4.368799925E-02
 4.378959909E-02 4.391659796E-02 4.401820153E-02 4.411980137E-02 4.424680024E-02