#+++++++++++++++++++++++++++++++++++++++++++++++++++++++++++++++++++++++++++++++++++++++++++++++++++++++++++++++++++++++++++++++++
#
#   IPW-3 Cut/Slice DATA SUBMITTAL FORM for Test Case NACA0012_AE3933, May 18th 2026
#
#       NOMENCLATURE:
#                  X [m]:  X-coordinate of the surface (clean for reference)
#                  Y [m]:  Y-coordinate of the surface (clean for reference)
#                  Z [m]:  Z-coordinate of the surface (clean for reference)
#                 Cp [-]:  Pressure coefficient
#            HTC [W/m2K]:  Convective Heat Transfer Coefficient (on the rough surface)
#               Beta [-]:  Collection efficiency
#                 Ts [K]:  Surface temperature
#                 FF [-]:  Freezing fraction
#                  k [m]:  Surface roughness height if variable (OPTIONAL)
#         RhoIce [kg/m3]:  Ice density (OPTIONAL)
#      HTC_CLEAN [W/m2K]:  Convective Heat Transfer Coefficient on the surface without roughness (OPTIONAL)
#
#                XXmm:  Roughness height used for the case, in mm.
#                       In the zone name, use the format KS_XXmm.
#                       For example, if k_s = 1.5 mm, use KS_1p5mm. 
#                       For Variable roughness, use KS_VAR
#
#    FLOW CONDITIONS:
#                                   AOA: 4.0 deg
#                           Mach Number: 0.3127 [-]
#       Mean aerodynamic chord (M.A.C.): 0.5334 [m]
#                       Reynolds Number: 3.8947 million (based on MAC)
#                       Freestream Temp: 270.95 [K]
#                        Reference area: 0.97548 [m2]
#               Moment Reference Center: 0.13335, 0, 0 [m] (X, Y, Z)
#
#    ICING CONDITIONS:
#                           Icing Time: 420 [s]
#                                  LWC: 0.55 [g/m3]
#                                  MVD: 20 [μm]
#
#              NOTES: 1. Please use at least 5 decimal places in the numerical values
#                     2. If data are NOT provided, please fill data fields with a numerical value of "-999" 
#
#++++++++++++++++++++++++++++++++++++++++++++++++++++++++++++++++++++++++++++++++++++++++++++++++++++++++++++++++++++

                                                    <- Optional ->                 
VARIABLES = "X" "Y" "Z" "Cp" "HTC" "Beta" "Ts" "FF" "k" "RhoIce" "HTC_CLEAN"

ZONE T="SLICE_Y_0p9144_BINS01_KS_0p5334mm_CUTDATA"
5.324723721E-01 9.143999815E-01 -2.723562904E-02 8.840075135E-02 2.035799255E+02 0.000000000E+00 2.704667053E+02 -1.000000000E+00 -9.990000000E+02 0.000000000E+00 -9.990000000E+02
5.309804082E-01 9.143999815E-01 -2.691932954E-02 1.019143537E-01 2.259885559E+02 0.000000000E+00 2.704745483E+02 -1.000000000E+00 -9.990000000E+02 0.000000000E+00 -9.990000000E+02
5.309804082E-01 9.143999815E-01 -2.691932768E-02 1.019143537E-01 2.259886322E+02 0.000000000E+00 2.704745483E+02 -1.000000000E+00 -9.990000000E+02 0.000000000E+00 -9.990000000E+02
5.285930634E-01 9.143999815E-01 -2.641456388E-02 9.707773477E-02 2.293719635E+02 0.000000000E+00 2.704717407E+02 -1.000000000E+00 -9.990000000E+02 0.000000000E+00 -9.990000000E+02
5.285930634E-01 9.143999815E-01 -2.641456202E-02 9.707773477E-02 2.293719788E+02 0.000000000E+00 2.704717407E+02 -1.000000000E+00 -9.990000000E+02 0.000000000E+00 -9.990000000E+02
5.247724056E-01 9.143999815E-01 -2.561072074E-02 9.033340216E-02 2.311731262E+02 0.000000000E+00 2.704678345E+02 -1.000000000E+00 -9.990000000E+02 0.000000000E+00 -9.990000000E+02
5.247724056E-01 9.143999815E-01 -2.561071701E-02 9.033340216E-02 2.311731262E+02 0.000000000E+00 2.704678345E+02 -1.000000000E+00 -9.990000000E+02 0.000000000E+00 -9.990000000E+02
5.196167231E-01 9.143999815E-01 -2.453357726E-02 8.131852001E-02 2.335752411E+02 0.000000000E+00 2.704626160E+02 -1.000000000E+00 -9.990000000E+02 0.000000000E+00 -9.990000000E+02
5.196167231E-01 9.143999815E-01 -2.453357354E-02 8.131852001E-02 2.335752563E+02 0.000000000E+00 2.704626160E+02 -1.000000000E+00 -9.990000000E+02 0.000000000E+00 -9.990000000E+02
5.144593120E-01 9.143999815E-01 -2.346470766E-02 7.121885568E-02 2.380145416E+02 0.000000000E+00 2.704567566E+02 -1.000000000E+00 -9.990000000E+02 0.000000000E+00 -9.990000000E+02
5.144593120E-01 9.143999815E-01 -2.346470393E-02 7.121885568E-02 2.380145569E+02 0.000000000E+00 2.704567566E+02 -1.000000000E+00 -9.990000000E+02 0.000000000E+00 -9.990000000E+02
5.093002915E-01 9.143999815E-01 -2.240378596E-02 6.124387309E-02 2.433779297E+02 0.000000000E+00 2.704509583E+02 -1.000000000E+00 -9.990000000E+02 0.000000000E+00 -9.990000000E+02
5.093002915E-01 9.143999815E-01 -2.240378223E-02 6.124387309E-02 2.433779449E+02 0.000000000E+00 2.704509583E+02 -1.000000000E+00 -9.990000000E+02 0.000000000E+00 -9.990000000E+02
5.041396022E-01 9.143999815E-01 -2.135082893E-02 5.137487873E-02 2.486424103E+02 0.000000000E+00 2.704452209E+02 -1.000000000E+00 -9.990000000E+02 0.000000000E+00 -9.990000000E+02
5.041396022E-01 9.143999815E-01 -2.135082521E-02 5.137487873E-02 2.486424255E+02 0.000000000E+00 2.704452209E+02 -1.000000000E+00 -9.990000000E+02 0.000000000E+00 -9.990000000E+02
4.989774227E-01 9.143999815E-01 -2.030550130E-02 4.139491543E-02 2.535937653E+02 0.000000000E+00 2.704394226E+02 -1.000000000E+00 -9.990000000E+02 0.000000000E+00 -9.990000000E+02
4.989773929E-01 9.143999815E-01 -2.030549757E-02 4.139491543E-02 2.535937805E+02 0.000000000E+00 2.704394226E+02 -1.000000000E+00 -9.990000000E+02 0.000000000E+00 -9.990000000E+02
4.938136339E-01 9.143999815E-01 -1.926789246E-02 3.132268041E-02 2.583366699E+02 0.000000000E+00 2.704335632E+02 -1.000000000E+00 -9.990000000E+02 0.000000000E+00 -9.990000000E+02
4.938136041E-01 9.143999815E-01 -1.926788874E-02 3.132268041E-02 2.583367004E+02 0.000000000E+00 2.704335632E+02 -1.000000000E+00 -9.990000000E+02 0.000000000E+00 -9.990000000E+02
4.886483252E-01 9.143999815E-01 -1.823780499E-02 2.123922296E-02 2.629705200E+02 0.000000000E+00 2.704277039E+02 -1.000000000E+00 -9.990000000E+02 0.000000000E+00 -9.990000000E+02
4.886482954E-01 9.143999815E-01 -1.823780127E-02 2.123922296E-02 2.629705505E+02 0.000000000E+00 2.704277039E+02 -1.000000000E+00 -9.990000000E+02 0.000000000E+00 -9.990000000E+02
4.834815860E-01 9.143999815E-01 -1.721507870E-02 1.118319761E-02 2.675031433E+02 0.000000000E+00 2.704218445E+02 -1.000000000E+00 -9.990000000E+02 0.000000000E+00 -9.990000000E+02
4.834815562E-01 9.143999815E-01 -1.721507497E-02 1.118319761E-02 2.675031738E+02 0.000000000E+00 2.704218445E+02 -1.000000000E+00 -9.990000000E+02 0.000000000E+00 -9.990000000E+02
4.783133864E-01 9.143999815E-01 -1.619965211E-02 1.175800571E-03 2.719008484E+02 0.000000000E+00 2.704160156E+02 -1.000000000E+00 -9.990000000E+02 0.000000000E+00 -9.990000000E+02
4.783133566E-01 9.143999815E-01 -1.619964838E-02 1.175800571E-03 2.719008789E+02 0.000000000E+00 2.704160156E+02 -1.000000000E+00 -9.990000000E+02 0.000000000E+00 -9.990000000E+02
4.731437862E-01 9.143999815E-01 -1.519145351E-02 -8.776734583E-03 2.761919250E+02 0.000000000E+00 2.704102173E+02 -1.000000000E+00 -9.990000000E+02 0.000000000E+00 -9.990000000E+02
4.731437564E-01 9.143999815E-01 -1.519144978E-02 -8.776734583E-03 2.761919556E+02 0.000000000E+00 2.704102173E+02 -1.000000000E+00 -9.990000000E+02 0.000000000E+00 -9.990000000E+02
4.679728150E-01 9.143999815E-01 -1.419036742E-02 -1.867066510E-02 2.803855591E+02 0.000000000E+00 2.704044495E+02 -1.000000000E+00 -9.990000000E+02 0.000000000E+00 -9.990000000E+02
4.679727852E-01 9.143999815E-01 -1.419036370E-02 -1.867066510E-02 2.803855896E+02 0.000000000E+00 2.704044495E+02 -1.000000000E+00 -9.990000000E+02 0.000000000E+00 -9.990000000E+02
4.628004432E-01 9.143999815E-01 -1.319633517E-02 -2.849601954E-02 2.844031372E+02 0.000000000E+00 2.703987427E+02 -1.000000000E+00 -9.990000000E+02 0.000000000E+00 -9.990000000E+02
4.628004134E-01 9.143999815E-01 -1.319633145E-02 -2.849601954E-02 2.844031372E+02 0.000000000E+00 2.703987427E+02 -1.000000000E+00 -9.990000000E+02 0.000000000E+00 -9.990000000E+02
4.576267898E-01 9.143999815E-01 -1.220924500E-02 -3.828521445E-02 2.882528687E+02 0.000000000E+00 2.703930054E+02 -1.000000000E+00 -9.990000000E+02 0.000000000E+00 -9.990000000E+02
4.576267600E-01 9.143999815E-01 -1.220924128E-02 -3.828521445E-02 2.882528687E+02 0.000000000E+00 2.703930054E+02 -1.000000000E+00 -9.990000000E+02 0.000000000E+00 -9.990000000E+02
4.524517953E-01 9.143999815E-01 -1.122901775E-02 -4.809311032E-02 2.920164795E+02 0.000000000E+00 2.703872681E+02 -1.000000000E+00 -9.990000000E+02 0.000000000E+00 -9.990000000E+02
4.524517655E-01 9.143999815E-01 -1.122901402E-02 -4.809311032E-02 2.920164795E+02 0.000000000E+00 2.703872681E+02 -1.000000000E+00 -9.990000000E+02 0.000000000E+00 -9.990000000E+02
4.472755194E-01 9.143999815E-01 -1.025567949E-02 -5.786734447E-02 2.956937256E+02 0.000000000E+00 2.703815613E+02 -1.000000000E+00 -9.990000000E+02 0.000000000E+00 -9.990000000E+02
4.472754896E-01 9.143999815E-01 -1.025567576E-02 -5.786734447E-02 2.956937256E+02 0.000000000E+00 2.703815613E+02 -1.000000000E+00 -9.990000000E+02 0.000000000E+00 -9.990000000E+02
4.420979619E-01 9.143999815E-01 -9.289108217E-03 -6.751314551E-02 2.992364197E+02 0.000000000E+00 2.703759155E+02 -1.000000000E+00 -9.990000000E+02 0.000000000E+00 -9.990000000E+02
4.420979321E-01 9.143999815E-01 -9.289104491E-03 -6.751314551E-02 2.992364197E+02 0.000000000E+00 2.703759155E+02 -1.000000000E+00 -9.990000000E+02 0.000000000E+00 -9.990000000E+02
4.369191527E-01 9.143999815E-01 -8.329233155E-03 -7.707167417E-02 3.026379395E+02 0.000000000E+00 2.703703613E+02 -1.000000000E+00 -9.990000000E+02 0.000000000E+00 -9.990000000E+02
4.369191229E-01 9.143999815E-01 -8.329229429E-03 -7.707167417E-02 3.026379395E+02 0.000000000E+00 2.703703613E+02 -1.000000000E+00 -9.990000000E+02 0.000000000E+00 -9.990000000E+02
4.317391217E-01 9.143999815E-01 -7.376157679E-03 -8.661523461E-02 3.059265747E+02 0.000000000E+00 2.703647461E+02 -1.000000000E+00 -9.990000000E+02 0.000000000E+00 -9.990000000E+02
4.317390919E-01 9.143999815E-01 -7.376154419E-03 -8.661523461E-02 3.059265747E+02 0.000000000E+00 2.703647461E+02 -1.000000000E+00 -9.990000000E+02 0.000000000E+00 -9.990000000E+02
4.265578389E-01 9.143999815E-01 -6.429791916E-03 -9.609894454E-02 3.091097717E+02 0.000000000E+00 2.703591919E+02 -1.000000000E+00 -9.990000000E+02 0.000000000E+00 -9.990000000E+02
4.265578091E-01 9.143999815E-01 -6.429788657E-03 -9.609894454E-02 3.091097717E+02 0.000000000E+00 2.703591919E+02 -1.000000000E+00 -9.990000000E+02 0.000000000E+00 -9.990000000E+02
4.213753343E-01 9.143999815E-01 -5.490096286E-03 -1.054479927E-01 3.121676636E+02 0.000000000E+00 2.703537292E+02 -1.000000000E+00 -9.990000000E+02 0.000000000E+00 -9.990000000E+02
4.213753045E-01 9.143999815E-01 -5.490093026E-03 -1.054479927E-01 3.121676636E+02 0.000000000E+00 2.703537292E+02 -1.000000000E+00 -9.990000000E+02 0.000000000E+00 -9.990000000E+02
4.161916375E-01 9.143999815E-01 -4.557065200E-03 -1.145164967E-01 3.149742737E+02 0.000000000E+00 2.703484192E+02 -1.000000000E+00 -9.990000000E+02 0.000000000E+00 -9.990000000E+02
4.161916077E-01 9.143999815E-01 -4.557061940E-03 -1.145164967E-01 3.149742737E+02 0.000000000E+00 2.703484192E+02 -1.000000000E+00 -9.990000000E+02 0.000000000E+00 -9.990000000E+02
4.110067487E-01 9.143999815E-01 -3.630721942E-03 -1.231997162E-01 3.173245850E+02 0.000000000E+00 2.703433228E+02 -1.000000000E+00 -9.990000000E+02 0.000000000E+00 -9.990000000E+02
4.110067189E-01 9.143999815E-01 -3.630718682E-03 -1.231997162E-01 3.173245850E+02 0.000000000E+00 2.703433228E+02 -1.000000000E+00 -9.990000000E+02 0.000000000E+00 -9.990000000E+02
4.058206379E-01 9.143999815E-01 -2.711075358E-03 -1.318305582E-01 3.193333130E+02 0.000000000E+00 2.703382874E+02 -1.000000000E+00 -9.990000000E+02 0.000000000E+00 -9.990000000E+02
4.058206081E-01 9.143999815E-01 -2.711072098E-03 -1.318305582E-01 3.193333130E+02 0.000000000E+00 2.703382874E+02 -1.000000000E+00 -9.990000000E+02 0.000000000E+00 -9.990000000E+02
4.006333649E-01 9.143999815E-01 -1.798137557E-03 -1.407781243E-01 3.214414062E+02 0.000000000E+00 2.703330383E+02 -1.000000000E+00 -9.990000000E+02 0.000000000E+00 -9.990000000E+02
4.006333351E-01 9.143999815E-01 -1.798134181E-03 -1.407781243E-01 3.214414062E+02 0.000000000E+00 2.703330383E+02 -1.000000000E+00 -9.990000000E+02 0.000000000E+00 -9.990000000E+02
3.954448998E-01 9.143999815E-01 -8.919443935E-04 -1.498877704E-01 3.238501892E+02 0.000000000E+00 2.703276978E+02 -1.000000000E+00 -9.990000000E+02 0.000000000E+00 -9.990000000E+02
3.954448700E-01 9.143999815E-01 -8.919410757E-04 -1.498877704E-01 3.238501892E+02 0.000000000E+00 2.703276978E+02 -1.000000000E+00 -9.990000000E+02 0.000000000E+00 -9.990000000E+02
3.902552724E-01 9.143999815E-01 7.488391475E-06 -1.589238495E-01 3.263944092E+02 0.000000000E+00 2.703223877E+02 -1.000000000E+00 -9.990000000E+02 0.000000000E+00 -9.990000000E+02
3.902552426E-01 9.143999815E-01 7.491667020E-06 -1.589238495E-01 3.263944092E+02 0.000000000E+00 2.703223877E+02 -1.000000000E+00 -9.990000000E+02 0.000000000E+00 -9.990000000E+02
3.850644529E-01 9.143999815E-01 8.999599377E-04 -1.679237783E-01 3.289770203E+02 0.000000000E+00 2.703170776E+02 -1.000000000E+00 -9.990000000E+02 0.000000000E+00 -9.990000000E+02
3.850644231E-01 9.143999815E-01 8.999631973E-04 -1.679237783E-01 3.289770203E+02 0.000000000E+00 2.703170776E+02 -1.000000000E+00 -9.990000000E+02 0.000000000E+00 -9.990000000E+02
3.798724115E-01 9.143999815E-01 1.785555971E-03 -1.769461483E-01 3.316939087E+02 0.000000000E+00 2.703117981E+02 -1.000000000E+00 -9.990000000E+02 0.000000000E+00 -9.990000000E+02
3.798723817E-01 9.143999815E-01 1.785559230E-03 -1.769461483E-01 3.316939087E+02 0.000000000E+00 2.703117981E+02 -1.000000000E+00 -9.990000000E+02 0.000000000E+00 -9.990000000E+02
3.746792376E-01 9.143999815E-01 2.664232394E-03 -1.859610379E-01 3.345086975E+02 0.000000000E+00 2.703065186E+02 -1.000000000E+00 -9.990000000E+02 0.000000000E+00 -9.990000000E+02
3.746792078E-01 9.143999815E-01 2.664235653E-03 -1.859610379E-01 3.345086975E+02 0.000000000E+00 2.703065186E+02 -1.000000000E+00 -9.990000000E+02 0.000000000E+00 -9.990000000E+02
3.694848716E-01 9.143999815E-01 3.535927739E-03 -1.949372590E-01 3.372801208E+02 0.000000000E+00 2.703012085E+02 -1.000000000E+00 -9.990000000E+02 0.000000000E+00 -9.990000000E+02
3.694848418E-01 9.143999815E-01 3.535930999E-03 -1.949372590E-01 3.372801208E+02 0.000000000E+00 2.703012085E+02 -1.000000000E+00 -9.990000000E+02 0.000000000E+00 -9.990000000E+02
3.642892838E-01 9.143999815E-01 4.400311038E-03 -2.038997859E-01 3.400743408E+02 0.000000000E+00 2.702959595E+02 -1.000000000E+00 -9.990000000E+02 0.000000000E+00 -9.990000000E+02
3.642892540E-01 9.143999815E-01 4.400314298E-03 -2.038997859E-01 3.400743408E+02 0.000000000E+00 2.702959595E+02 -1.000000000E+00 -9.990000000E+02 0.000000000E+00 -9.990000000E+02
3.590925038E-01 9.143999815E-01 5.257509649E-03 -2.128735185E-01 3.430037231E+02 0.000000000E+00 2.702906494E+02 -1.000000000E+00 -9.990000000E+02 0.000000000E+00 -9.990000000E+02
3.590924740E-01 9.143999815E-01 5.257512908E-03 -2.128735185E-01 3.430037231E+02 0.000000000E+00 2.702906494E+02 -1.000000000E+00 -9.990000000E+02 0.000000000E+00 -9.990000000E+02
3.538945317E-01 9.143999815E-01 6.107490975E-03 -2.218447626E-01 3.459816895E+02 0.000000000E+00 2.702854004E+02 -1.000000000E+00 -9.990000000E+02 0.000000000E+00 -9.990000000E+02
3.538945019E-01 9.143999815E-01 6.107494235E-03 -2.218447626E-01 3.459816895E+02 0.000000000E+00 2.702854004E+02 -1.000000000E+00 -9.990000000E+02 0.000000000E+00 -9.990000000E+02
3.486953378E-01 9.143999815E-01 6.949872710E-03 -2.308135182E-01 3.490010071E+02 0.000000000E+00 2.702800903E+02 -1.000000000E+00 -9.990000000E+02 0.000000000E+00 -9.990000000E+02
3.486953080E-01 9.143999815E-01 6.949875969E-03 -2.308135182E-01 3.490010071E+02 0.000000000E+00 2.702800903E+02 -1.000000000E+00 -9.990000000E+02 0.000000000E+00 -9.990000000E+02
3.434949219E-01 9.143999815E-01 7.784670684E-03 -2.398084551E-01 3.521896667E+02 0.000000000E+00 2.702747803E+02 -1.000000000E+00 -9.990000000E+02 0.000000000E+00 -9.990000000E+02
3.434948921E-01 9.143999815E-01 7.784673944E-03 -2.398084551E-01 3.521896667E+02 0.000000000E+00 2.702747803E+02 -1.000000000E+00 -9.990000000E+02 0.000000000E+00 -9.990000000E+02
3.382932544E-01 9.143999815E-01 8.611731231E-03 -2.488258332E-01 3.554566650E+02 0.000000000E+00 2.702694702E+02 -1.000000000E+00 -9.990000000E+02 0.000000000E+00 -9.990000000E+02
3.382932246E-01 9.143999815E-01 8.611734025E-03 -2.488258332E-01 3.554566650E+02 0.000000000E+00 2.702694702E+02 -1.000000000E+00 -9.990000000E+02 0.000000000E+00 -9.990000000E+02
3.330903351E-01 9.143999815E-01 9.430883452E-03 -2.578469515E-01 3.586280518E+02 0.000000000E+00 2.702641602E+02 -1.000000000E+00 -9.990000000E+02 0.000000000E+00 -9.990000000E+02
3.330903053E-01 9.143999815E-01 9.430886246E-03 -2.578469515E-01 3.586280518E+02 0.000000000E+00 2.702641602E+02 -1.000000000E+00 -9.990000000E+02 0.000000000E+00 -9.990000000E+02
3.278861642E-01 9.143999815E-01 1.024194807E-02 -2.668680847E-01 3.617149963E+02 0.000000000E+00 2.702588501E+02 -1.000000000E+00 -9.990000000E+02 0.000000000E+00 -9.990000000E+02
3.278861344E-01 9.143999815E-01 1.024195086E-02 -2.668680847E-01 3.617149963E+02 0.000000000E+00 2.702588501E+02 -1.000000000E+00 -9.990000000E+02 0.000000000E+00 -9.990000000E+02
3.226807117E-01 9.143999815E-01 1.104476955E-02 -2.759116590E-01 3.647439880E+02 0.000000000E+00 2.702534790E+02 -1.000000000E+00 -9.990000000E+02 0.000000000E+00 -9.990000000E+02
3.226806819E-01 9.143999815E-01 1.104477234E-02 -2.759116590E-01 3.647439880E+02 0.000000000E+00 2.702534790E+02 -1.000000000E+00 -9.990000000E+02 0.000000000E+00 -9.990000000E+02
3.174739778E-01 9.143999815E-01 1.183915976E-02 -2.850275338E-01 3.677142944E+02 0.000000000E+00 2.702481079E+02 -1.000000000E+00 -9.990000000E+02 0.000000000E+00 -9.990000000E+02
3.174739480E-01 9.143999815E-01 1.183916256E-02 -2.850275338E-01 3.677142944E+02 0.000000000E+00 2.702481079E+02 -1.000000000E+00 -9.990000000E+02 0.000000000E+00 -9.990000000E+02
3.122659028E-01 9.143999815E-01 1.262492500E-02 -2.942319512E-01 3.707570801E+02 0.000000000E+00 2.702426758E+02 -1.000000000E+00 -9.990000000E+02 0.000000000E+00 -9.990000000E+02
3.122658730E-01 9.143999815E-01 1.262492780E-02 -2.942319512E-01 3.707570801E+02 0.000000000E+00 2.702426758E+02 -1.000000000E+00 -9.990000000E+02 0.000000000E+00 -9.990000000E+02
3.070565164E-01 9.143999815E-01 1.340183616E-02 -3.035186529E-01 3.740309753E+02 0.000000000E+00 2.702371826E+02 -1.000000000E+00 -9.990000000E+02 0.000000000E+00 -9.990000000E+02
3.070564866E-01 9.143999815E-01 1.340183895E-02 -3.035186529E-01 3.740309753E+02 0.000000000E+00 2.702371826E+02 -1.000000000E+00 -9.990000000E+02 0.000000000E+00 -9.990000000E+02
3.018457890E-01 9.143999815E-01 1.416966878E-02 -3.129375279E-01 3.775067139E+02 0.000000000E+00 2.702315979E+02 -1.000000000E+00 -9.990000000E+02 0.000000000E+00 -9.990000000E+02
3.018457592E-01 9.143999815E-01 1.416967157E-02 -3.129375279E-01 3.775067139E+02 0.000000000E+00 2.702315979E+02 -1.000000000E+00 -9.990000000E+02 0.000000000E+00 -9.990000000E+02
2.966336906E-01 9.143999815E-01 1.492818724E-02 -3.225247264E-01 3.810291748E+02 0.000000000E+00 2.702259216E+02 -1.000000000E+00 -9.990000000E+02 0.000000000E+00 -9.990000000E+02
2.966336608E-01 9.143999815E-01 1.492819004E-02 -3.225247264E-01 3.810291748E+02 0.000000000E+00 2.702259216E+02 -1.000000000E+00 -9.990000000E+02 0.000000000E+00 -9.990000000E+02
2.914202213E-01 9.143999815E-01 1.567713171E-02 -3.322316110E-01 3.844516907E+02 0.000000000E+00 2.702201843E+02 -1.000000000E+00 -9.990000000E+02 0.000000000E+00 -9.990000000E+02
2.914201915E-01 9.143999815E-01 1.567713358E-02 -3.322316110E-01 3.844516907E+02 0.000000000E+00 2.702201843E+02 -1.000000000E+00 -9.990000000E+02 0.000000000E+00 -9.990000000E+02
2.862053216E-01 9.143999815E-01 1.641622931E-02 -3.420108557E-01 3.876987000E+02 0.000000000E+00 2.702143860E+02 -1.000000000E+00 -9.990000000E+02 0.000000000E+00 -9.990000000E+02
2.862052917E-01 9.143999815E-01 1.641623117E-02 -3.420108557E-01 3.876987000E+02 0.000000000E+00 2.702143860E+02 -1.000000000E+00 -9.990000000E+02 0.000000000E+00 -9.990000000E+02
2.809890211E-01 9.143999815E-01 1.714520343E-02 -3.518598974E-01 3.908852234E+02 0.000000000E+00 2.702085571E+02 -1.000000000E+00 -9.990000000E+02 0.000000000E+00 -9.990000000E+02
2.809889913E-01 9.143999815E-01 1.714520529E-02 -3.518598974E-01 3.908852234E+02 0.000000000E+00 2.702085571E+02 -1.000000000E+00 -9.990000000E+02 0.000000000E+00 -9.990000000E+02
2.757712603E-01 9.143999815E-01 1.786375232E-02 -3.617176712E-01 3.940346375E+02 0.000000000E+00 2.702026978E+02 -1.000000000E+00 -9.990000000E+02 0.000000000E+00 -9.990000000E+02
2.757712305E-01 9.143999815E-01 1.786375418E-02 -3.617176712E-01 3.940346375E+02 0.000000000E+00 2.702026978E+02 -1.000000000E+00 -9.990000000E+02 0.000000000E+00 -9.990000000E+02
2.705520391E-01 9.143999815E-01 1.857155561E-02 -3.715804219E-01 3.969582825E+02 0.000000000E+00 2.701968384E+02 -1.000000000E+00 -9.990000000E+02 0.000000000E+00 -9.990000000E+02
2.705520093E-01 9.143999815E-01 1.857155748E-02 -3.715804219E-01 3.969582825E+02 0.000000000E+00 2.701968384E+02 -1.000000000E+00 -9.990000000E+02 0.000000000E+00 -9.990000000E+02
2.653313279E-01 9.143999815E-01 1.926829480E-02 -3.816551566E-01 3.998364258E+02 0.000000000E+00 2.701908569E+02 -1.000000000E+00 -9.990000000E+02 0.000000000E+00 -9.990000000E+02
2.653312981E-01 9.143999815E-01 1.926829666E-02 -3.816551566E-01 3.998364258E+02 0.000000000E+00 2.701908569E+02 -1.000000000E+00 -9.990000000E+02 0.000000000E+00 -9.990000000E+02
2.601090968E-01 9.143999815E-01 1.995361783E-02 -3.920291364E-01 4.030145874E+02 0.000000000E+00 2.701847229E+02 -1.000000000E+00 -9.990000000E+02 0.000000000E+00 -9.990000000E+02
2.601090670E-01 9.143999815E-01 1.995361969E-02 -3.920291364E-01 4.030145874E+02 0.000000000E+00 2.701847229E+02 -1.000000000E+00 -9.990000000E+02 0.000000000E+00 -9.990000000E+02
2.548853457E-01 9.143999815E-01 2.062714845E-02 -4.025365114E-01 4.062599487E+02 0.000000000E+00 2.701784668E+02 -1.000000000E+00 -9.990000000E+02 0.000000000E+00 -9.990000000E+02
2.548853159E-01 9.143999815E-01 2.062715031E-02 -4.025365114E-01 4.062599487E+02 0.000000000E+00 2.701784668E+02 -1.000000000E+00 -9.990000000E+02 0.000000000E+00 -9.990000000E+02
2.496600300E-01 9.143999815E-01 2.128851973E-02 -4.130937755E-01 4.091672974E+02 0.000000000E+00 2.701721802E+02 -1.000000000E+00 -9.990000000E+02 0.000000000E+00 -9.990000000E+02
2.496600151E-01 9.143999815E-01 2.128852159E-02 -4.130937755E-01 4.091672974E+02 0.000000000E+00 2.701721802E+02 -1.000000000E+00 -9.990000000E+02 0.000000000E+00 -9.990000000E+02
2.444331348E-01 9.143999815E-01 2.193731442E-02 -4.237408340E-01 4.117898560E+02 0.000000000E+00 2.701658630E+02 -1.000000000E+00 -9.990000000E+02 0.000000000E+00 -9.990000000E+02
2.444331199E-01 9.143999815E-01 2.193731628E-02 -4.237408340E-01 4.117898560E+02 0.000000000E+00 2.701658630E+02 -1.000000000E+00 -9.990000000E+02 0.000000000E+00 -9.990000000E+02
2.392046452E-01 9.143999815E-01 2.257309854E-02 -4.345013499E-01 4.143887939E+02 0.000000000E+00 2.701594849E+02 -1.000000000E+00 -9.990000000E+02 0.000000000E+00 -9.990000000E+02
2.392046303E-01 9.143999815E-01 2.257310040E-02 -4.345013499E-01 4.143887939E+02 0.000000000E+00 2.701594849E+02 -1.000000000E+00 -9.990000000E+02 0.000000000E+00 -9.990000000E+02
2.339745462E-01 9.143999815E-01 2.319544181E-02 -4.454102218E-01 4.173429871E+02 0.000000000E+00 2.701529541E+02 -1.000000000E+00 -9.990000000E+02 0.000000000E+00 -9.990000000E+02
2.339745313E-01 9.143999815E-01 2.319544367E-02 -4.454102218E-01 4.173429871E+02 0.000000000E+00 2.701529541E+02 -1.000000000E+00 -9.990000000E+02 0.000000000E+00 -9.990000000E+02
2.287428081E-01 9.143999815E-01 2.380388416E-02 -4.565161169E-01 4.211231079E+02 0.000000000E+00 2.701463623E+02 -1.000000000E+00 -9.990000000E+02 0.000000000E+00 -9.990000000E+02
2.287427932E-01 9.143999815E-01 2.380388603E-02 -4.565161169E-01 4.211231079E+02 0.000000000E+00 2.701463623E+02 -1.000000000E+00 -9.990000000E+02 0.000000000E+00 -9.990000000E+02
2.235094160E-01 9.143999815E-01 2.439792641E-02 -4.677978158E-01 4.255416565E+02 0.000000000E+00 2.701396179E+02 -1.000000000E+00 -9.990000000E+02 0.000000000E+00 -9.990000000E+02
2.235094011E-01 9.143999815E-01 2.439792827E-02 -4.677978158E-01 4.255416870E+02 0.000000000E+00 2.701396179E+02 -1.000000000E+00 -9.990000000E+02 0.000000000E+00 -9.990000000E+02
2.182743549E-01 9.143999815E-01 2.497706190E-02 -4.791954756E-01 4.298003235E+02 0.000000000E+00 2.701328125E+02 -1.000000000E+00 -9.990000000E+02 0.000000000E+00 -9.990000000E+02
2.182743400E-01 9.143999815E-01 2.497706376E-02 -4.791954756E-01 4.298003235E+02 0.000000000E+00 2.701328125E+02 -1.000000000E+00 -9.990000000E+02 0.000000000E+00 -9.990000000E+02
2.130376101E-01 9.143999815E-01 2.554076165E-02 -4.906941354E-01 4.336981506E+02 0.000000000E+00 2.701259460E+02 -1.000000000E+00 -9.990000000E+02 0.000000000E+00 -9.990000000E+02
2.130375952E-01 9.143999815E-01 2.554076351E-02 -4.906941354E-01 4.336981506E+02 0.000000000E+00 2.701259460E+02 -1.000000000E+00 -9.990000000E+02 0.000000000E+00 -9.990000000E+02
2.077991515E-01 9.143999815E-01 2.608845010E-02 -5.023424029E-01 4.379486084E+02 0.000000000E+00 2.701189880E+02 -1.000000000E+00 -9.990000000E+02 0.000000000E+00 -9.990000000E+02
2.077991366E-01 9.143999815E-01 2.608845197E-02 -5.023424029E-01 4.379486389E+02 0.000000000E+00 2.701189880E+02 -1.000000000E+00 -9.990000000E+02 0.000000000E+00 -9.990000000E+02
2.025589943E-01 9.143999815E-01 2.661953121E-02 -5.142425895E-01 4.432681580E+02 0.000000000E+00 2.701118774E+02 -1.000000000E+00 -9.990000000E+02 0.000000000E+00 -9.990000000E+02
2.025589794E-01 9.143999815E-01 2.661953308E-02 -5.142425895E-01 4.432681885E+02 0.000000000E+00 2.701118774E+02 -1.000000000E+00 -9.990000000E+02 0.000000000E+00 -9.990000000E+02
1.973171234E-01 9.143999815E-01 2.713337541E-02 -5.264033079E-01 4.493325500E+02 0.000000000E+00 2.701046143E+02 -1.000000000E+00 -9.990000000E+02 0.000000000E+00 -9.990000000E+02
1.973171085E-01 9.143999815E-01 2.713337727E-02 -5.264033079E-01 4.493325806E+02 0.000000000E+00 2.701046143E+02 -1.000000000E+00 -9.990000000E+02 0.000000000E+00 -9.990000000E+02
1.920735240E-01 9.143999815E-01 2.762923390E-02 -5.387173891E-01 4.551019287E+02 0.000000000E+00 2.700972595E+02 -1.000000000E+00 -9.990000000E+02 0.000000000E+00 -9.990000000E+02
1.920735091E-01 9.143999815E-01 2.762923576E-02 -5.387173891E-01 4.551019592E+02 0.000000000E+00 2.700972595E+02 -1.000000000E+00 -9.990000000E+02 0.000000000E+00 -9.990000000E+02
1.868281811E-01 9.143999815E-01 2.810651064E-02 -5.512085557E-01 4.603022766E+02 0.000000000E+00 2.700897827E+02 -1.000000000E+00 -9.990000000E+02 0.000000000E+00 -9.990000000E+02
1.868281662E-01 9.143999815E-01 2.810651250E-02 -5.512085557E-01 4.603023071E+02 0.000000000E+00 2.700897827E+02 -1.000000000E+00 -9.990000000E+02 0.000000000E+00 -9.990000000E+02
1.815811396E-01 9.143999815E-01 2.856452577E-02 -5.639952421E-01 4.653139038E+02 0.000000000E+00 2.700821228E+02 -1.000000000E+00 -9.990000000E+02 0.000000000E+00 -9.990000000E+02
1.815811247E-01 9.143999815E-01 2.856452763E-02 -5.639952421E-01 4.653139343E+02 0.000000000E+00 2.700821228E+02 -1.000000000E+00 -9.990000000E+02 0.000000000E+00 -9.990000000E+02
1.763323694E-01 9.143999815E-01 2.900232002E-02 -5.769889355E-01 4.701631775E+02 0.000000000E+00 2.700743408E+02 -1.000000000E+00 -9.990000000E+02 0.000000000E+00 -9.990000000E+02
1.763323545E-01 9.143999815E-01 2.900232188E-02 -5.769889355E-01 4.701632080E+02 0.000000000E+00 2.700743408E+02 -1.000000000E+00 -9.990000000E+02 0.000000000E+00 -9.990000000E+02
1.710818857E-01 9.143999815E-01 2.941915579E-02 -5.900835395E-01 4.747226562E+02 0.000000000E+00 2.700664673E+02 -1.000000000E+00 -9.990000000E+02 0.000000000E+00 -9.990000000E+02
1.710818708E-01 9.143999815E-01 2.941915765E-02 -5.900835395E-01 4.747226868E+02 0.000000000E+00 2.700664673E+02 -1.000000000E+00 -9.990000000E+02 0.000000000E+00 -9.990000000E+02
1.658297330E-01 9.143999815E-01 2.981428243E-02 -6.034662724E-01 4.791355286E+02 0.000000000E+00 2.700584412E+02 -1.000000000E+00 -9.990000000E+02 0.000000000E+00 -9.990000000E+02
1.658297181E-01 9.143999815E-01 2.981428429E-02 -6.034662724E-01 4.791355591E+02 0.000000000E+00 2.700584412E+02 -1.000000000E+00 -9.990000000E+02 0.000000000E+00 -9.990000000E+02
1.605758965E-01 9.143999815E-01 3.018648550E-02 -6.173489094E-01 4.837593689E+02 0.000000000E+00 2.700501099E+02 -1.000000000E+00 -9.990000000E+02 0.000000000E+00 -9.990000000E+02
1.605758816E-01 9.143999815E-01 3.018648736E-02 -6.173489094E-01 4.837593994E+02 0.000000000E+00 2.700501099E+02 -1.000000000E+00 -9.990000000E+02 0.000000000E+00 -9.990000000E+02
1.553204507E-01 9.143999815E-01 3.053510375E-02 -6.317889690E-01 4.889020691E+02 0.000000000E+00 2.700414124E+02 -1.000000000E+00 -9.990000000E+02 0.000000000E+00 -9.990000000E+02
1.553204358E-01 9.143999815E-01 3.053510562E-02 -6.317889690E-01 4.889020996E+02 0.000000000E+00 2.700414124E+02 -1.000000000E+00 -9.990000000E+02 0.000000000E+00 -9.990000000E+02
1.500633955E-01 9.143999815E-01 3.085875697E-02 -6.467277408E-01 4.944449158E+02 0.000000000E+00 2.700324402E+02 -1.000000000E+00 -9.990000000E+02 0.000000000E+00 -9.990000000E+02
1.500633806E-01 9.143999815E-01 3.085875884E-02 -6.467277408E-01 4.944449463E+02 0.000000000E+00 2.700324402E+02 -1.000000000E+00 -9.990000000E+02 0.000000000E+00 -9.990000000E+02
1.448048204E-01 9.143999815E-01 3.115655296E-02 -6.617974043E-01 5.003486328E+02 0.000000000E+00 2.700233765E+02 -1.000000000E+00 -9.990000000E+02 0.000000000E+00 -9.990000000E+02
1.448048055E-01 9.143999815E-01 3.115655482E-02 -6.617974043E-01 5.003486633E+02 0.000000000E+00 2.700233765E+02 -1.000000000E+00 -9.990000000E+02 0.000000000E+00 -9.990000000E+02