VARIABLES = "X_ICED" "Y_ICED" "Z_ICED"
ZONE T="SLICE_Y_0p1_BINS01_KS_1mm_SINGLE_LAYER"
1.02809 0.10000 0.00000 
1.02809 0.10000 -0.00000 
1.02809 0.10000 -0.00000 
1.02807 0.10000 -0.00000 
1.02807 0.10000 -0.00000 
1.02804 0.10000 -0.00001 
1.02803 0.10000 -0.00001 
1.02799 0.10000 -0.00001 
1.02799 0.10000 -0.00001 
1.02793 0.10000 -0.00002 
1.02793 0.10000 -0.00002 
1.02786 0.10000 -0.00003 
1.02786 0.10000 -0.00003 
1.02778 0.10000 -0.00004 
1.02777 0.10000 -0.00004 
1.02768 0.10000 -0.00005 
1.02767 0.10000 -0.00005 
1.02756 0.10000 -0.00007 
1.02756 0.10000 -0.00007 
1.02743 0.10000 -0.00008 
1.02743 0.10000 -0.00009 
1.02729 0.10000 -0.00010 
1.02728 0.10000 -0.00010 
1.02713 0.10000 -0.00012 
1.02712 0.10000 -0.00013 
1.02695 0.10000 -0.00015 
1.02694 0.10000 -0.00015 
1.02676 0.10000 -0.00017 
1.02675 0.10000 -0.00017 
1.02655 0.10000 -0.00020 
1.02654 0.10000 -0.00020 
1.02632 0.10000 -0.00023 
1.02631 0.10000 -0.00023 
1.02608 0.10000 -0.00026 
1.02606 0.10000 -0.00026 
1.02581 0.10000 -0.00029 
1.02579 0.10000 -0.00030 
1.02552 0.10000 -0.00033 
1.02550 0.10000 -0.00033 
1.02521 0.10000 -0.00037 
1.02519 0.10000 -0.00037 
1.02488 0.10000 -0.00041 
1.02486 0.10000 -0.00042 
1.02452 0.10000 -0.00046 
1.02450 0.10000 -0.00046 
1.02414 0.10000 -0.00051 
1.02412 0.10000 -0.00051 
1.02373 0.10000 -0.00056 
1.02371 0.10000 -0.00056 
1.02329 0.10000 -0.00062 
1.02327 0.10000 -0.00062 
1.02283 0.10000 -0.00068 
1.02280 0.10000 -0.00068 
1.02233 0.10000 -0.00074 
1.02230 0.10000 -0.00074 
1.02180 0.10000 -0.00081 
1.02177 0.10000 -0.00081 
1.02123 0.10000 -0.00088 
1.02120 0.10000 -0.00088 
1.02062 0.10000 -0.00096 
1.02059 0.10000 -0.00096 
1.01998 0.10000 -0.00104 
1.01994 0.10000 -0.00104 
1.01929 0.10000 -0.00112 
1.01925 0.10000 -0.00113 
1.01856 0.10000 -0.00122 
1.01852 0.10000 -0.00122 
1.01778 0.10000 -0.00132 
1.01773 0.10000 -0.00132 
1.01694 0.10000 -0.00142 
1.01690 0.10000 -0.00143 
1.01606 0.10000 -0.00153 
1.01601 0.10000 -0.00154 
1.01511 0.10000 -0.00165 
1.01506 0.10000 -0.00166 
1.01410 0.10000 -0.00178 
1.01405 0.10000 -0.00178 
1.01303 0.10000 -0.00191 
1.01297 0.10000 -0.00192 
1.01189 0.10000 -0.00205 
1.01183 0.10000 -0.00206 
1.01067 0.10000 -0.00220 
1.01060 0.10000 -0.00221 
1.00937 0.10000 -0.00237 
1.00930 0.10000 -0.00237 
1.00798 0.10000 -0.00254 
1.00791 0.10000 -0.00255 
1.00651 0.10000 -0.00272 
1.00643 0.10000 -0.00273 
1.00493 0.10000 -0.00291 
1.00485 0.10000 -0.00292 
1.00326 0.10000 -0.00312 
1.00317 0.10000 -0.00313 
1.00147 0.10000 -0.00334 
1.00137 0.10000 -0.00335 
0.99956 0.10000 -0.00357 
0.99946 0.10000 -0.00359 
0.99752 0.10000 -0.00382 
0.99742 0.10000 -0.00384 
0.99536 0.10000 -0.00409 
0.99524 0.10000 -0.00410 
0.99304 0.10000 -0.00437 
0.99292 0.10000 -0.00439 
0.99057 0.10000 -0.00468 
0.99044 0.10000 -0.00469 
0.98794 0.10000 -0.00500 
0.98780 0.10000 -0.00502 
0.98514 0.10000 -0.00534 
0.98499 0.10000 -0.00536 
0.98214 0.10000 -0.00571 
0.98198 0.10000 -0.00573 
0.97895 0.10000 -0.00611 
0.97878 0.10000 -0.00613 
0.97555 0.10000 -0.00653 
0.97537 0.10000 -0.00655 
0.97193 0.10000 -0.00698 
0.97174 0.10000 -0.00700 
0.96807 0.10000 -0.00745 
0.96786 0.10000 -0.00748 
0.96396 0.10000 -0.00796 
0.96373 0.10000 -0.00799 
0.95958 0.10000 -0.00850 
0.95934 0.10000 -0.00853 
0.95491 0.10000 -0.00907 
0.95466 0.10000 -0.00910 
0.94995 0.10000 -0.00968 
0.94969 0.10000 -0.00971 
0.94468 0.10000 -0.01032 
0.94439 0.10000 -0.01035 
0.93907 0.10000 -0.01100 
0.93877 0.10000 -0.01103 
0.93311 0.10000 -0.01171 
0.93279 0.10000 -0.01175 
0.92678 0.10000 -0.01246 
0.92644 0.10000 -0.01250 
0.92007 0.10000 -0.01324 
0.91971 0.10000 -0.01329 
0.91296 0.10000 -0.01407 
0.91258 0.10000 -0.01411 
0.90542 0.10000 -0.01493 
0.90502 0.10000 -0.01497 
0.89745 0.10000 -0.01582 
0.89703 0.10000 -0.01587 
0.88903 0.10000 -0.01675 
0.88858 0.10000 -0.01680 
0.88014 0.10000 -0.01772 
0.87966 0.10000 -0.01777 
0.87076 0.10000 -0.01872 
0.87026 0.10000 -0.01878 
0.86088 0.10000 -0.01976 
0.86035 0.10000 -0.01981 
0.85050 0.10000 -0.02082 
0.84994 0.10000 -0.02088 
0.83960 0.10000 -0.02192 
0.83901 0.10000 -0.02198 
0.82817 0.10000 -0.02305 
0.82755 0.10000 -0.02311 
0.81621 0.10000 -0.02421 
0.81556 0.10000 -0.02428 
0.80371 0.10000 -0.02540 
0.80304 0.10000 -0.02547 
0.79068 0.10000 -0.02662 
0.78998 0.10000 -0.02669 
0.77713 0.10000 -0.02787 
0.77640 0.10000 -0.02793 
0.76305 0.10000 -0.02913 
0.76230 0.10000 -0.02920 
0.74847 0.10000 -0.03042 
0.74768 0.10000 -0.03049 
0.73339 0.10000 -0.03172 
0.73258 0.10000 -0.03179 
0.71784 0.10000 -0.03303 
0.71701 0.10000 -0.03310 
0.70185 0.10000 -0.03435 
0.70099 0.10000 -0.03442 
0.68543 0.10000 -0.03566 
0.68455 0.10000 -0.03573 
0.66864 0.10000 -0.03695 
0.66774 0.10000 -0.03702 
0.65150 0.10000 -0.03822 
0.65058 0.10000 -0.03829 
0.63405 0.10000 -0.03945 
0.63311 0.10000 -0.03952 
0.61634 0.10000 -0.04063 
0.61539 0.10000 -0.04069 
0.59842 0.10000 -0.04174 
0.59746 0.10000 -0.04180 
0.58034 0.10000 -0.04277 
0.57937 0.10000 -0.04283 
0.56214 0.10000 -0.04371 
0.56117 0.10000 -0.04376 
0.54389 0.10000 -0.04455 
0.54291 0.10000 -0.04460 
0.52564 0.10000 -0.04528 
0.52466 0.10000 -0.04532 
0.50743 0.10000 -0.04590 
0.50646 0.10000 -0.04593 
0.48933 0.10000 -0.04639 
0.48837 0.10000 -0.04642 
0.47139 0.10000 -0.04677 
0.47043 0.10000 -0.04679 
0.45366 0.10000 -0.04703 
0.45271 0.10000 -0.04704 
0.43618 0.10000 -0.04718 
0.43525 0.10000 -0.04718 
0.41901 0.10000 -0.04722 
0.41809 0.10000 -0.04722 
0.40217 0.10000 -0.04716 
0.40127 0.10000 -0.04715 
0.38572 0.10000 -0.04701 
0.38484 0.10000 -0.04700 
0.36968 0.10000 -0.04678 
0.36882 0.10000 -0.04676 
0.35408 0.10000 -0.04647 
0.35325 0.10000 -0.04646 
0.33895 0.10000 -0.04611 
0.33814 0.10000 -0.04609 
0.32431 0.10000 -0.04568 
0.32353 0.10000 -0.04566 
0.31018 0.10000 -0.04521 
0.30943 0.10000 -0.04519 
0.29657 0.10000 -0.04470 
0.29584 0.10000 -0.04467 
0.28348 0.10000 -0.04416 
0.28278 0.10000 -0.04413 
0.27093 0.10000 -0.04358 
0.27026 0.10000 -0.04355 
0.25891 0.10000 -0.04298 
0.25827 0.10000 -0.04294 
0.24743 0.10000 -0.04235 
0.24681 0.10000 -0.04232 
0.23647 0.10000 -0.04171 
0.23588 0.10000 -0.04168 
0.22603 0.10000 -0.04105 
0.22547 0.10000 -0.04102 
0.21610 0.10000 -0.04038 
0.21557 0.10000 -0.04035 
0.20667 0.10000 -0.03970 
0.20617 0.10000 -0.03967 
0.19772 0.10000 -0.03902 
0.19725 0.10000 -0.03898 
0.18925 0.10000 -0.03833 
0.18880 0.10000 -0.03829 
0.18123 0.10000 -0.03764 
0.18081 0.10000 -0.03760 
0.17365 0.10000 -0.03694 
0.17325 0.10000 -0.03691 
0.16650 0.10000 -0.03626 
0.16611 0.10000 -0.03622 
0.15974 0.10000 -0.03557 
0.15938 0.10000 -0.03553 
0.15328 0.10000 -0.03560 
0.15287 0.10000 -0.03597 
0.14555 0.10000 -0.04726 
0.14488 0.10000 -0.04831 
0.13846 0.10000 -0.05578 
0.13784 0.10000 -0.05584 
0.13299 0.10000 -0.05518 
0.13241 0.10000 -0.05510 
0.12786 0.10000 -0.05447 
0.12730 0.10000 -0.05439 
0.12302 0.10000 -0.05378 
0.12249 0.10000 -0.05371 
0.11847 0.10000 -0.05314 
0.11796 0.10000 -0.05307 
0.11418 0.10000 -0.05256 
0.11370 0.10000 -0.05250 
0.11014 0.10000 -0.05206 
0.10968 0.10000 -0.05200 
0.10634 0.10000 -0.05165 
0.10589 0.10000 -0.05160 
0.10273 0.10000 -0.05133 
0.10231 0.10000 -0.05129 
0.09930 0.10000 -0.05111 
0.09889 0.10000 -0.05108 
0.09603 0.10000 -0.05095 
0.09562 0.10000 -0.05094 
0.09288 0.10000 -0.05086 
0.09247 0.10000 -0.05085 
0.08983 0.10000 -0.05072 
0.08942 0.10000 -0.05070 
0.08687 0.10000 -0.05051 
0.08646 0.10000 -0.05048 
0.08400 0.10000 -0.05021 
0.08358 0.10000 -0.05016 
0.08123 0.10000 -0.04976 
0.08080 0.10000 -0.04969 
0.07857 0.10000 -0.04911 
0.07814 0.10000 -0.04900 
0.07604 0.10000 -0.04827 
0.07561 0.10000 -0.04813 
0.07363 0.10000 -0.04730 
0.07321 0.10000 -0.04711 
0.07140 0.10000 -0.04609 
0.07100 0.10000 -0.04586 
0.06936 0.10000 -0.04469 
0.06897 0.10000 -0.04443 
0.06750 0.10000 -0.04313 
0.06716 0.10000 -0.04279 
0.06592 0.10000 -0.04128 
0.06561 0.10000 -0.04094 
0.06447 0.10000 -0.03948 
0.06416 0.10000 -0.03916 
0.06307 0.10000 -0.03784 
0.06281 0.10000 -0.03749 
0.06197 0.10000 -0.03596 
0.06179 0.10000 -0.03556 
0.06119 0.10000 -0.03388 
0.06102 0.10000 -0.03352 
0.06036 0.10000 -0.03213 
0.06019 0.10000 -0.03181 
0.05960 0.10000 -0.03047 
0.05948 0.10000 -0.03014 
0.05913 0.10000 -0.02866 
0.05902 0.10000 -0.02836 
0.05870 0.10000 -0.02698 
0.05864 0.10000 -0.02667 
0.05838 0.10000 -0.02536 
0.05833 0.10000 -0.02508 
0.05794 0.10000 -0.02398 
0.05787 0.10000 -0.02376 
0.05765 0.10000 -0.02260 
0.05757 0.10000 -0.02241 
0.05743 0.10000 -0.02127 
0.05738 0.10000 -0.02107 
0.05726 0.10000 -0.02000 
0.05727 0.10000 -0.01979 
0.05704 0.10000 -0.01886 
0.05702 0.10000 -0.01869 
0.05687 0.10000 -0.01777 
0.05681 0.10000 -0.01764 
0.05665 0.10000 -0.01677 
0.05662 0.10000 -0.01664 
0.05653 0.10000 -0.01578 
0.05652 0.10000 -0.01564 
0.05634 0.10000 -0.01488 
0.05632 0.10000 -0.01476 
0.05602 0.10000 -0.01410 
0.05599 0.10000 -0.01400 
0.05586 0.10000 -0.01328 
0.05584 0.10000 -0.01318 
0.05571 0.10000 -0.01249 
0.05569 0.10000 -0.01240 
0.05548 0.10000 -0.01178 
0.05545 0.10000 -0.01169 
0.05527 0.10000 -0.01108 
0.05525 0.10000 -0.01100 
0.05502 0.10000 -0.01043 
0.05499 0.10000 -0.01036 
0.05476 0.10000 -0.00980 
0.05473 0.10000 -0.00973 
0.05454 0.10000 -0.00917 
0.05452 0.10000 -0.00909 
0.05434 0.10000 -0.00855 
0.05432 0.10000 -0.00847 
0.05415 0.10000 -0.00795 
0.05413 0.10000 -0.00788 
0.05394 0.10000 -0.00737 
0.05391 0.10000 -0.00730 
0.05373 0.10000 -0.00678 
0.05370 0.10000 -0.00672 
0.05350 0.10000 -0.00621 
0.05347 0.10000 -0.00614 
0.05327 0.10000 -0.00566 
0.05325 0.10000 -0.00559 
0.05310 0.10000 -0.00513 
0.05308 0.10000 -0.00506 
0.05295 0.10000 -0.00457 
0.05293 0.10000 -0.00450 
0.05277 0.10000 -0.00395 
0.05275 0.10000 -0.00387 
0.05254 0.10000 -0.00339 
0.05251 0.10000 -0.00332 
0.05230 0.10000 -0.00296 
0.05227 0.10000 -0.00291 
0.05213 0.10000 -0.00242 
0.05211 0.10000 -0.00235 
0.05204 0.10000 -0.00163 
0.05203 0.10000 -0.00153 
0.05195 0.10000 -0.00090 
0.05194 0.10000 -0.00080 
0.05178 0.10000 -0.00041 
0.05177 0.10000 -0.00035 
0.05167 0.10000 -0.00004 
0.05166 0.10000 0.00000 
0.05164 0.10000 0.00005 
0.05146 0.10000 0.00036 
0.05143 0.10000 0.00042 
0.05126 0.10000 0.00083 
0.05128 0.10000 0.00146 
0.05129 0.10000 0.00157 
0.05132 0.10000 0.00231 
0.05132 0.10000 0.00242 
0.05122 0.10000 0.00296 
0.05119 0.10000 0.00305 
0.05074 0.10000 0.00349 
0.05067 0.10000 0.00357 
0.05031 0.10000 0.00414 
0.05027 0.10000 0.00424 
0.05029 0.10000 0.00487 
0.05029 0.10000 0.00498 
0.05043 0.10000 0.00552 
0.05045 0.10000 0.00561 
0.05033 0.10000 0.00616 
0.05031 0.10000 0.00626 
0.04967 0.10000 0.00697 
0.04960 0.10000 0.00709 
0.04931 0.10000 0.00779 
0.04927 0.10000 0.00793 
0.04939 0.10000 0.00852 
0.04940 0.10000 0.00865 
0.04942 0.10000 0.00926 
0.04944 0.10000 0.00939 
0.04920 0.10000 0.01010 
0.04917 0.10000 0.01025 
0.04866 0.10000 0.01111 
0.04849 0.10000 0.01132 
0.04782 0.10000 0.01229 
0.04766 0.10000 0.01253 
0.04743 0.10000 0.01336 
0.04744 0.10000 0.01356 
0.04743 0.10000 0.01432 
0.04741 0.10000 0.01453 
0.04700 0.10000 0.01551 
0.04686 0.10000 0.01580 
0.04616 0.10000 0.01697 
0.04606 0.10000 0.01727 
0.04557 0.10000 0.01839 
0.04540 0.10000 0.01877 
0.04496 0.10000 0.01992 
0.04472 0.10000 0.02038 
0.04455 0.10000 0.02143 
0.04451 0.10000 0.02182 
0.04421 0.10000 0.02300 
0.04397 0.10000 0.02355 
0.04295 0.10000 0.02527 
0.04260 0.10000 0.02596 
0.04201 0.10000 0.02748 
0.04185 0.10000 0.02812 
0.04172 0.10000 0.02940 
0.04172 0.10000 0.03000 
0.04161 0.10000 0.03133 
0.04143 0.10000 0.03213 
0.04060 0.10000 0.03411 
0.04015 0.10000 0.03524 
0.03963 0.10000 0.03708 
0.03945 0.10000 0.03812 
0.03960 0.10000 0.03951 
0.03973 0.10000 0.04039 
0.03989 0.10000 0.04187 
0.03989 0.10000 0.04296 
0.03964 0.10000 0.04498 
0.03958 0.10000 0.04628 
0.03960 0.10000 0.04817 
0.03959 0.10000 0.04958 
0.03982 0.10000 0.05138 
0.03996 0.10000 0.05279 
0.04035 0.10000 0.05456 
0.04075 0.10000 0.05582 
0.04139 0.10000 0.05748 
0.04188 0.10000 0.05877 
0.04256 0.10000 0.06057 
0.04305 0.10000 0.06202 
0.04397 0.10000 0.06369 
0.04462 0.10000 0.06508 
0.04579 0.10000 0.06660 
0.04665 0.10000 0.06777 
0.04801 0.10000 0.06922 
0.04901 0.10000 0.07021 
0.05060 0.10000 0.07150 
0.05166 0.10000 0.07239 
0.05343 0.10000 0.07359 
0.05452 0.10000 0.07437 
0.05655 0.10000 0.07529 
0.05771 0.10000 0.07583 
0.05998 0.10000 0.07642 
0.06114 0.10000 0.07678 
0.06357 0.10000 0.07717 
0.06471 0.10000 0.07739 
0.06727 0.10000 0.07756 
0.06836 0.10000 0.07763 
0.07108 0.10000 0.07745 
0.07210 0.10000 0.07742 
0.07495 0.10000 0.07686 
0.07590 0.10000 0.07675 
0.08133 0.10000 0.06697 
0.08209 0.10000 0.06678 
0.09024 0.10000 0.04578 
0.09110 0.10000 0.04398 
0.09710 0.10000 0.03038 
0.09749 0.10000 0.02961 
0.10039 0.10000 0.02902 
0.10074 0.10000 0.02825 
0.10358 0.10000 0.02872 
0.10384 0.10000 0.02831 
0.10687 0.10000 0.02879 
0.10704 0.10000 0.02882 
0.11027 0.10000 0.02931 
0.11045 0.10000 0.02934 
0.11390 0.10000 0.02986 
0.11409 0.10000 0.02989 
0.11776 0.10000 0.03042 
0.11796 0.10000 0.03045 
0.12187 0.10000 0.03101 
0.12209 0.10000 0.03104 
0.12625 0.10000 0.03161 
0.12649 0.10000 0.03164 
0.13091 0.10000 0.03222 
0.13116 0.10000 0.03225 
0.13587 0.10000 0.03285 
0.13614 0.10000 0.03289 
0.14115 0.10000 0.03350 
0.14143 0.10000 0.03353 
0.14676 0.10000 0.03415 
0.14706 0.10000 0.03419 
0.15272 0.10000 0.03482 
0.15304 0.10000 0.03486 
0.15904 0.10000 0.03550 
0.15938 0.10000 0.03553 
0.16575 0.10000 0.03618 
0.16611 0.10000 0.03622 
0.17287 0.10000 0.03687 
0.17325 0.10000 0.03691 
0.18040 0.10000 0.03756 
0.18081 0.10000 0.03760 
0.18837 0.10000 0.03825 
0.18880 0.10000 0.03829 
0.19680 0.10000 0.03894 
0.19725 0.10000 0.03898 
0.20569 0.10000 0.03963 
0.20617 0.10000 0.03967 
0.21507 0.10000 0.04031 
0.21557 0.10000 0.04035 
0.22494 0.10000 0.04098 
0.22547 0.10000 0.04102 
0.23533 0.10000 0.04164 
0.23588 0.10000 0.04168 
0.24623 0.10000 0.04228 
0.24681 0.10000 0.04232 
0.25766 0.10000 0.04291 
0.25827 0.10000 0.04294 
0.26962 0.10000 0.04351 
0.27026 0.10000 0.04355 
0.28211 0.10000 0.04409 
0.28278 0.10000 0.04413 
0.29514 0.10000 0.04464 
0.29584 0.10000 0.04467 
0.30870 0.10000 0.04516 
0.30943 0.10000 0.04519 
0.32278 0.10000 0.04564 
0.32353 0.10000 0.04566 
0.33736 0.10000 0.04606 
0.33814 0.10000 0.04609 
0.35244 0.10000 0.04644 
0.35325 0.10000 0.04646 
0.36799 0.10000 0.04675 
0.36882 0.10000 0.04676 
0.38398 0.10000 0.04699 
0.38484 0.10000 0.04700 
0.40039 0.10000 0.04715 
0.40127 0.10000 0.04715 
0.41719 0.10000 0.04721 
0.41809 0.10000 0.04722 
0.43433 0.10000 0.04719 
0.43525 0.10000 0.04718 
0.45178 0.10000 0.04705 
0.45271 0.10000 0.04704 
0.46949 0.10000 0.04680 
0.47043 0.10000 0.04679 
0.48741 0.10000 0.04644 
0.48837 0.10000 0.04642 
0.50549 0.10000 0.04596 
0.50646 0.10000 0.04593 
0.52368 0.10000 0.04535 
0.52466 0.10000 0.04532 
0.54194 0.10000 0.04464 
0.54291 0.10000 0.04460 
0.56019 0.10000 0.04381 
0.56117 0.10000 0.04376 
0.57839 0.10000 0.04288 
0.57937 0.10000 0.04283 
0.59649 0.10000 0.04185 
0.59746 0.10000 0.04180 
0.61443 0.10000 0.04075 
0.61539 0.10000 0.04069 
0.63217 0.10000 0.03958 
0.63311 0.10000 0.03952 
0.64964 0.10000 0.03836 
0.65058 0.10000 0.03829 
0.66682 0.10000 0.03709 
0.66774 0.10000 0.03702 
0.68366 0.10000 0.03580 
0.68455 0.10000 0.03573 
0.70011 0.10000 0.03449 
0.70099 0.10000 0.03442 
0.71615 0.10000 0.03317 
0.71701 0.10000 0.03310 
0.73175 0.10000 0.03186 
0.73258 0.10000 0.03179 
0.74688 0.10000 0.03056 
0.74768 0.10000 0.03049 
0.76151 0.10000 0.02927 
0.76230 0.10000 0.02920 
0.77565 0.10000 0.02800 
0.77640 0.10000 0.02793 
0.78926 0.10000 0.02675 
0.78998 0.10000 0.02669 
0.80234 0.10000 0.02553 
0.80304 0.10000 0.02547 
0.81489 0.10000 0.02434 
0.81556 0.10000 0.02428 
0.82691 0.10000 0.02318 
0.82755 0.10000 0.02311 
0.83840 0.10000 0.02204 
0.83901 0.10000 0.02198 
0.84936 0.10000 0.02094 
0.84994 0.10000 0.02088 
0.85980 0.10000 0.01987 
0.86035 0.10000 0.01981 
0.86973 0.10000 0.01883 
0.87026 0.10000 0.01878 
0.87916 0.10000 0.01783 
0.87966 0.10000 0.01777 
0.88810 0.10000 0.01686 
0.88858 0.10000 0.01680 
0.89657 0.10000 0.01592 
0.89703 0.10000 0.01587 
0.90459 0.10000 0.01502 
0.90502 0.10000 0.01497 
0.91217 0.10000 0.01416 
0.91258 0.10000 0.01411 
0.91933 0.10000 0.01333 
0.91971 0.10000 0.01329 
0.92608 0.10000 0.01254 
0.92644 0.10000 0.01250 
0.93245 0.10000 0.01179 
0.93279 0.10000 0.01175 
0.93845 0.10000 0.01107 
0.93877 0.10000 0.01103 
0.94409 0.10000 0.01039 
0.94439 0.10000 0.01035 
0.94940 0.10000 0.00975 
0.94969 0.10000 0.00971 
0.95440 0.10000 0.00914 
0.95466 0.10000 0.00910 
0.95909 0.10000 0.00856 
0.95934 0.10000 0.00853 
0.96350 0.10000 0.00802 
0.96373 0.10000 0.00799 
0.96764 0.10000 0.00751 
0.96786 0.10000 0.00748 
0.97153 0.10000 0.00703 
0.97174 0.10000 0.00700 
0.97518 0.10000 0.00657 
0.97537 0.10000 0.00655 
0.97860 0.10000 0.00615 
0.97878 0.10000 0.00613 
0.98181 0.10000 0.00575 
0.98198 0.10000 0.00573 
0.98482 0.10000 0.00538 
0.98499 0.10000 0.00536 
0.98765 0.10000 0.00503 
0.98780 0.10000 0.00502 
0.99030 0.10000 0.00471 
0.99044 0.10000 0.00469 
0.99278 0.10000 0.00440 
0.99292 0.10000 0.00439 
0.99511 0.10000 0.00412 
0.99524 0.10000 0.00410 
0.99730 0.10000 0.00385 
0.99742 0.10000 0.00384 
0.99935 0.10000 0.00360 
0.99946 0.10000 0.00359 
1.00127 0.10000 0.00336 
1.00137 0.10000 0.00335 
1.00307 0.10000 0.00314 
1.00317 0.10000 0.00313 
1.00476 0.10000 0.00293 
1.00485 0.10000 0.00292 
1.00634 0.10000 0.00274 
1.00643 0.10000 0.00273 
1.00783 0.10000 0.00256 
1.00791 0.10000 0.00255 
1.00923 0.10000 0.00238 
1.00930 0.10000 0.00237 
1.01053 0.10000 0.00222 
1.01060 0.10000 0.00221 
1.01176 0.10000 0.00207 
1.01183 0.10000 0.00206 
1.01291 0.10000 0.00192 
1.01297 0.10000 0.00192 
1.01399 0.10000 0.00179 
1.01405 0.10000 0.00178 
1.01501 0.10000 0.00166 
1.01506 0.10000 0.00166 
1.01596 0.10000 0.00154 
1.01601 0.10000 0.00154 
1.01685 0.10000 0.00143 
1.01690 0.10000 0.00143 
1.01769 0.10000 0.00133 
1.01773 0.10000 0.00132 
1.01848 0.10000 0.00123 
1.01852 0.10000 0.00122 
1.01921 0.10000 0.00113 
1.01925 0.10000 0.00113 
1.01991 0.10000 0.00105 
1.01994 0.10000 0.00104 
1.02056 0.10000 0.00096 
1.02059 0.10000 0.00096 
1.02117 0.10000 0.00089 
1.02120 0.10000 0.00088 
1.02174 0.10000 0.00081 
1.02177 0.10000 0.00081 
1.02227 0.10000 0.00075 
1.02230 0.10000 0.00074 
1.02278 0.10000 0.00068 
1.02280 0.10000 0.00068 
1.02325 0.10000 0.00062 
1.02327 0.10000 0.00062 
1.02368 0.10000 0.00057 
1.02371 0.10000 0.00056 
1.02410 0.10000 0.00051 
1.02412 0.10000 0.00051 
1.02448 0.10000 0.00046 
1.02450 0.10000 0.00046 
1.02484 0.10000 0.00042 
1.02486 0.10000 0.00042 
1.02518 0.10000 0.00037 
1.02519 0.10000 0.00037 
1.02549 0.10000 0.00033 
1.02550 0.10000 0.00033 
1.02578 0.10000 0.00030 
1.02579 0.10000 0.00030 
1.02605 0.10000 0.00026 
1.02606 0.10000 0.00026 
1.02630 0.10000 0.00023 
1.02631 0.10000 0.00023 
1.02653 0.10000 0.00020 
1.02654 0.10000 0.00020 
1.02674 0.10000 0.00017 
1.02675 0.10000 0.00017 
1.02693 0.10000 0.00015 
1.02694 0.10000 0.00015 
1.02711 0.10000 0.00013 
1.02712 0.10000 0.00013 
1.02727 0.10000 0.00011 
1.02728 0.10000 0.00010 
1.02742 0.10000 0.00009 
1.02743 0.10000 0.00009 
1.02755 0.10000 0.00007 
1.02756 0.10000 0.00007 
1.02766 0.10000 0.00006 
1.02767 0.10000 0.00005 
1.02777 0.10000 0.00004 
1.02777 0.10000 0.00004 
1.02785 0.10000 0.00003 
1.02786 0.10000 0.00003 
1.02793 0.10000 0.00002 
1.02793 0.10000 0.00002 
1.02799 0.10000 0.00001 
1.02799 0.10000 0.00001 
1.02803 0.10000 0.00001 
1.02803 0.10000 0.00001 
1.02807 0.10000 0.00000 
1.02807 0.10000 0.00000 
1.02809 0.10000 0.00000 
1.02809 0.10000 0.00000 
1.02809 0.10000 0.00000 
1.02809 0.10000 0.00000 

ZONE T="SLICE_Y_0p75_BINS01_KS_1mm_SINGLE_LAYER"
1.21070 0.75000 0.00000 
1.21070 0.75000 -0.00000 
1.21069 0.75000 -0.00000 
1.21068 0.75000 -0.00000 
1.21068 0.75000 -0.00000 
1.21066 0.75000 -0.00000 
1.21065 0.75000 -0.00001 
1.21063 0.75000 -0.00001 
1.21062 0.75000 -0.00001 
1.21058 0.75000 -0.00001 
1.21057 0.75000 -0.00002 
1.21053 0.75000 -0.00002 
1.21051 0.75000 -0.00002 
1.21046 0.75000 -0.00003 
1.21044 0.75000 -0.00003 
1.21039 0.75000 -0.00004 
1.21036 0.75000 -0.00004 
1.21030 0.75000 -0.00005 
1.21027 0.75000 -0.00006 
1.21020 0.75000 -0.00006 
1.21016 0.75000 -0.00007 
1.21009 0.75000 -0.00008 
1.21005 0.75000 -0.00008 
1.20996 0.75000 -0.00009 
1.20992 0.75000 -0.00010 
1.20982 0.75000 -0.00011 
1.20978 0.75000 -0.00012 
1.20967 0.75000 -0.00013 
1.20962 0.75000 -0.00014 
1.20951 0.75000 -0.00015 
1.20945 0.75000 -0.00016 
1.20933 0.75000 -0.00018 
1.20927 0.75000 -0.00018 
1.20914 0.75000 -0.00020 
1.20907 0.75000 -0.00021 
1.20893 0.75000 -0.00023 
1.20886 0.75000 -0.00024 
1.20870 0.75000 -0.00026 
1.20862 0.75000 -0.00027 
1.20846 0.75000 -0.00029 
1.20838 0.75000 -0.00030 
1.20820 0.75000 -0.00032 
1.20811 0.75000 -0.00033 
1.20792 0.75000 -0.00036 
1.20782 0.75000 -0.00037 
1.20762 0.75000 -0.00040 
1.20751 0.75000 -0.00041 
1.20729 0.75000 -0.00044 
1.20719 0.75000 -0.00045 
1.20695 0.75000 -0.00048 
1.20683 0.75000 -0.00050 
1.20658 0.75000 -0.00053 
1.20646 0.75000 -0.00054 
1.20619 0.75000 -0.00058 
1.20606 0.75000 -0.00059 
1.20577 0.75000 -0.00063 
1.20563 0.75000 -0.00065 
1.20533 0.75000 -0.00069 
1.20517 0.75000 -0.00071 
1.20485 0.75000 -0.00075 
1.20469 0.75000 -0.00077 
1.20434 0.75000 -0.00081 
1.20417 0.75000 -0.00083 
1.20380 0.75000 -0.00088 
1.20361 0.75000 -0.00090 
1.20322 0.75000 -0.00095 
1.20303 0.75000 -0.00098 
1.20261 0.75000 -0.00103 
1.20240 0.75000 -0.00106 
1.20195 0.75000 -0.00111 
1.20173 0.75000 -0.00114 
1.20125 0.75000 -0.00120 
1.20101 0.75000 -0.00123 
1.20051 0.75000 -0.00130 
1.20025 0.75000 -0.00133 
1.19972 0.75000 -0.00140 
1.19944 0.75000 -0.00143 
1.19887 0.75000 -0.00150 
1.19858 0.75000 -0.00154 
1.19797 0.75000 -0.00161 
1.19766 0.75000 -0.00165 
1.19701 0.75000 -0.00173 
1.19668 0.75000 -0.00177 
1.19599 0.75000 -0.00186 
1.19564 0.75000 -0.00190 
1.19490 0.75000 -0.00199 
1.19452 0.75000 -0.00204 
1.19373 0.75000 -0.00214 
1.19334 0.75000 -0.00219 
1.19249 0.75000 -0.00229 
1.19207 0.75000 -0.00234 
1.19117 0.75000 -0.00245 
1.19072 0.75000 -0.00251 
1.18976 0.75000 -0.00263 
1.18928 0.75000 -0.00269 
1.18826 0.75000 -0.00281 
1.18775 0.75000 -0.00287 
1.18666 0.75000 -0.00301 
1.18611 0.75000 -0.00308 
1.18495 0.75000 -0.00322 
1.18437 0.75000 -0.00329 
1.18313 0.75000 -0.00344 
1.18251 0.75000 -0.00352 
1.18119 0.75000 -0.00368 
1.18052 0.75000 -0.00376 
1.17911 0.75000 -0.00393 
1.17841 0.75000 -0.00402 
1.17691 0.75000 -0.00420 
1.17615 0.75000 -0.00430 
1.17455 0.75000 -0.00449 
1.17374 0.75000 -0.00459 
1.17204 0.75000 -0.00480 
1.17118 0.75000 -0.00491 
1.16936 0.75000 -0.00514 
1.16845 0.75000 -0.00525 
1.16651 0.75000 -0.00549 
1.16553 0.75000 -0.00561 
1.16347 0.75000 -0.00587 
1.16243 0.75000 -0.00599 
1.16023 0.75000 -0.00627 
1.15912 0.75000 -0.00640 
1.15678 0.75000 -0.00669 
1.15560 0.75000 -0.00684 
1.15310 0.75000 -0.00714 
1.15185 0.75000 -0.00730 
1.14919 0.75000 -0.00762 
1.14786 0.75000 -0.00778 
1.14504 0.75000 -0.00813 
1.14362 0.75000 -0.00830 
1.14062 0.75000 -0.00866 
1.13911 0.75000 -0.00884 
1.13592 0.75000 -0.00922 
1.13432 0.75000 -0.00942 
1.13093 0.75000 -0.00982 
1.12923 0.75000 -0.01002 
1.12564 0.75000 -0.01044 
1.12384 0.75000 -0.01065 
1.12003 0.75000 -0.01109 
1.11812 0.75000 -0.01131 
1.11409 0.75000 -0.01177 
1.11206 0.75000 -0.01200 
1.10780 0.75000 -0.01248 
1.10565 0.75000 -0.01272 
1.10115 0.75000 -0.01322 
1.09888 0.75000 -0.01347 
1.09413 0.75000 -0.01398 
1.09174 0.75000 -0.01424 
1.08672 0.75000 -0.01478 
1.08420 0.75000 -0.01505 
1.07892 0.75000 -0.01560 
1.07626 0.75000 -0.01588 
1.07071 0.75000 -0.01645 
1.06792 0.75000 -0.01674 
1.06209 0.75000 -0.01732 
1.05916 0.75000 -0.01762 
1.05305 0.75000 -0.01822 
1.04998 0.75000 -0.01853 
1.04358 0.75000 -0.01915 
1.04037 0.75000 -0.01946 
1.03369 0.75000 -0.02009 
1.03033 0.75000 -0.02041 
1.02337 0.75000 -0.02106 
1.01987 0.75000 -0.02139 
1.01262 0.75000 -0.02205 
1.00898 0.75000 -0.02239 
1.00146 0.75000 -0.02306 
0.99767 0.75000 -0.02340 
0.98988 0.75000 -0.02409 
0.98596 0.75000 -0.02443 
0.97791 0.75000 -0.02513 
0.97386 0.75000 -0.02548 
0.96555 0.75000 -0.02618 
0.96138 0.75000 -0.02653 
0.95284 0.75000 -0.02723 
0.94854 0.75000 -0.02759 
0.93978 0.75000 -0.02828 
0.93537 0.75000 -0.02864 
0.92640 0.75000 -0.02933 
0.92189 0.75000 -0.02967 
0.91274 0.75000 -0.03035 
0.90814 0.75000 -0.03069 
0.89883 0.75000 -0.03134 
0.89414 0.75000 -0.03167 
0.88469 0.75000 -0.03230 
0.87994 0.75000 -0.03261 
0.87038 0.75000 -0.03320 
0.86556 0.75000 -0.03350 
0.85592 0.75000 -0.03405 
0.85106 0.75000 -0.03432 
0.84136 0.75000 -0.03482 
0.83648 0.75000 -0.03507 
0.82674 0.75000 -0.03552 
0.82185 0.75000 -0.03574 
0.81211 0.75000 -0.03613 
0.80722 0.75000 -0.03632 
0.79751 0.75000 -0.03665 
0.79263 0.75000 -0.03681 
0.78298 0.75000 -0.03707 
0.77813 0.75000 -0.03720 
0.76857 0.75000 -0.03740 
0.76376 0.75000 -0.03750 
0.75431 0.75000 -0.03764 
0.74955 0.75000 -0.03770 
0.74024 0.75000 -0.03778 
0.73556 0.75000 -0.03782 
0.72641 0.75000 -0.03783 
0.72180 0.75000 -0.03784 
0.71284 0.75000 -0.03781 
0.70833 0.75000 -0.03779 
0.69956 0.75000 -0.03771 
0.69516 0.75000 -0.03767 
0.68662 0.75000 -0.03754 
0.68232 0.75000 -0.03748 
0.67401 0.75000 -0.03732 
0.66984 0.75000 -0.03723 
0.66178 0.75000 -0.03704 
0.65773 0.75000 -0.03694 
0.64994 0.75000 -0.03671 
0.64602 0.75000 -0.03660 
0.63850 0.75000 -0.03634 
0.63472 0.75000 -0.03622 
0.62747 0.75000 -0.03594 
0.62383 0.75000 -0.03580 
0.61687 0.75000 -0.03551 
0.61337 0.75000 -0.03536 
0.60669 0.75000 -0.03506 
0.60333 0.75000 -0.03490 
0.59694 0.75000 -0.03458 
0.59372 0.75000 -0.03442 
0.58761 0.75000 -0.03408 
0.58454 0.75000 -0.03392 
0.57871 0.75000 -0.03357 
0.57578 0.75000 -0.03340 
0.57022 0.75000 -0.03305 
0.56743 0.75000 -0.03287 
0.56215 0.75000 -0.03252 
0.55950 0.75000 -0.03234 
0.55448 0.75000 -0.03197 
0.55196 0.75000 -0.03179 
0.54720 0.75000 -0.03143 
0.54481 0.75000 -0.03124 
0.54031 0.75000 -0.03087 
0.53804 0.75000 -0.03069 
0.53378 0.75000 -0.03032 
0.53163 0.75000 -0.03013 
0.52760 0.75000 -0.02977 
0.52558 0.75000 -0.02958 
0.52177 0.75000 -0.02921 
0.51986 0.75000 -0.02903 
0.51572 0.75000 -0.03326 
0.51352 0.75000 -0.03518 
0.50932 0.75000 -0.04207 
0.50652 0.75000 -0.04728 
0.50321 0.75000 -0.05016 
0.50081 0.75000 -0.05184 
0.49820 0.75000 -0.05148 
0.49616 0.75000 -0.05120 
0.49371 0.75000 -0.05084 
0.49177 0.75000 -0.05056 
0.48948 0.75000 -0.05022 
0.48764 0.75000 -0.04995 
0.48550 0.75000 -0.04964 
0.48375 0.75000 -0.04938 
0.48174 0.75000 -0.04909 
0.48008 0.75000 -0.04885 
0.47820 0.75000 -0.04860 
0.47662 0.75000 -0.04839 
0.47486 0.75000 -0.04818 
0.47337 0.75000 -0.04800 
0.47172 0.75000 -0.04785 
0.47029 0.75000 -0.04771 
0.46874 0.75000 -0.04760 
0.46737 0.75000 -0.04751 
0.46590 0.75000 -0.04744 
0.46458 0.75000 -0.04739 
0.46319 0.75000 -0.04732 
0.46191 0.75000 -0.04725 
0.46060 0.75000 -0.04713 
0.45935 0.75000 -0.04702 
0.45809 0.75000 -0.04688 
0.45686 0.75000 -0.04674 
0.45566 0.75000 -0.04655 
0.45444 0.75000 -0.04636 
0.45330 0.75000 -0.04609 
0.45209 0.75000 -0.04582 
0.45101 0.75000 -0.04549 
0.44982 0.75000 -0.04513 
0.44881 0.75000 -0.04475 
0.44764 0.75000 -0.04429 
0.44672 0.75000 -0.04380 
0.44560 0.75000 -0.04321 
0.44475 0.75000 -0.04269 
0.44368 0.75000 -0.04199 
0.44290 0.75000 -0.04146 
0.44191 0.75000 -0.04063 
0.44125 0.75000 -0.03998 
0.44032 0.75000 -0.03909 
0.43976 0.75000 -0.03835 
0.43891 0.75000 -0.03743 
0.43840 0.75000 -0.03673 
0.43766 0.75000 -0.03571 
0.43721 0.75000 -0.03502 
0.43652 0.75000 -0.03406 
0.43615 0.75000 -0.03332 
0.43556 0.75000 -0.03233 
0.43518 0.75000 -0.03171 
0.43463 0.75000 -0.03078 
0.43430 0.75000 -0.03017 
0.43381 0.75000 -0.02926 
0.43355 0.75000 -0.02863 
0.43322 0.75000 -0.02764 
0.43304 0.75000 -0.02698 
0.43282 0.75000 -0.02599 
0.43263 0.75000 -0.02537 
0.43245 0.75000 -0.02446 
0.43230 0.75000 -0.02385 
0.43214 0.75000 -0.02301 
0.43199 0.75000 -0.02244 
0.43174 0.75000 -0.02178 
0.43166 0.75000 -0.02119 
0.43149 0.75000 -0.02053 
0.43136 0.75000 -0.02001 
0.43119 0.75000 -0.01941 
0.43115 0.75000 -0.01886 
0.43119 0.75000 -0.01814 
0.43113 0.75000 -0.01764 
0.43104 0.75000 -0.01709 
0.43088 0.75000 -0.01668 
0.43067 0.75000 -0.01628 
0.43059 0.75000 -0.01583 
0.43047 0.75000 -0.01539 
0.43033 0.75000 -0.01501 
0.43015 0.75000 -0.01463 
0.43000 0.75000 -0.01428 
0.42994 0.75000 -0.01385 
0.42989 0.75000 -0.01345 
0.42989 0.75000 -0.01301 
0.42977 0.75000 -0.01267 
0.42961 0.75000 -0.01235 
0.42944 0.75000 -0.01204 
0.42928 0.75000 -0.01174 
0.42917 0.75000 -0.01142 
0.42904 0.75000 -0.01111 
0.42892 0.75000 -0.01080 
0.42878 0.75000 -0.01051 
0.42864 0.75000 -0.01023 
0.42850 0.75000 -0.00995 
0.42838 0.75000 -0.00966 
0.42827 0.75000 -0.00937 
0.42817 0.75000 -0.00908 
0.42806 0.75000 -0.00880 
0.42794 0.75000 -0.00852 
0.42781 0.75000 -0.00825 
0.42768 0.75000 -0.00799 
0.42754 0.75000 -0.00773 
0.42739 0.75000 -0.00748 
0.42724 0.75000 -0.00723 
0.42708 0.75000 -0.00700 
0.42690 0.75000 -0.00676 
0.42676 0.75000 -0.00650 
0.42660 0.75000 -0.00624 
0.42650 0.75000 -0.00598 
0.42639 0.75000 -0.00571 
0.42631 0.75000 -0.00546 
0.42623 0.75000 -0.00520 
0.42615 0.75000 -0.00497 
0.42608 0.75000 -0.00473 
0.42595 0.75000 -0.00448 
0.42582 0.75000 -0.00421 
0.42562 0.75000 -0.00394 
0.42540 0.75000 -0.00364 
0.42523 0.75000 -0.00342 
0.42502 0.75000 -0.00317 
0.42494 0.75000 -0.00300 
0.42485 0.75000 -0.00282 
0.42480 0.75000 -0.00254 
0.42475 0.75000 -0.00223 
0.42471 0.75000 -0.00185 
0.42467 0.75000 -0.00141 
0.42460 0.75000 -0.00112 
0.42455 0.75000 -0.00078 
0.42443 0.75000 -0.00061 
0.42430 0.75000 -0.00040 
0.42414 0.75000 -0.00022 
0.42390 0.75000 0.00000 
0.42363 0.75000 0.00024 
0.42347 0.75000 0.00043 
0.42334 0.75000 0.00066 
0.42322 0.75000 0.00082 
0.42318 0.75000 0.00110 
0.42317 0.75000 0.00148 
0.42320 0.75000 0.00186 
0.42325 0.75000 0.00236 
0.42327 0.75000 0.00264 