VARIABLES = "X_ICED" "Y_ICED" "Z_ICED"
ZONE T="SLICE_Y_0p1_BINS01_KS_1mm_SINGLE_LAYER"
1.02809 0.10000 0.00000 
1.02809 0.10000 -0.00000 
1.02809 0.10000 -0.00000 
1.02807 0.10000 -0.00000 
1.02807 0.10000 -0.00000 
1.02804 0.10000 -0.00001 
1.02803 0.10000 -0.00001 
1.02799 0.10000 -0.00001 
1.02799 0.10000 -0.00001 
1.02793 0.10000 -0.00002 
1.02793 0.10000 -0.00002 
1.02786 0.10000 -0.00003 
1.02786 0.10000 -0.00003 
1.02778 0.10000 -0.00004 
1.02777 0.10000 -0.00004 
1.02768 0.10000 -0.00005 
1.02767 0.10000 -0.00005 
1.02756 0.10000 -0.00007 
1.02756 0.10000 -0.00007 
1.02743 0.10000 -0.00008 
1.02743 0.10000 -0.00009 
1.02729 0.10000 -0.00010 
1.02728 0.10000 -0.00010 
1.02713 0.10000 -0.00012 
1.02712 0.10000 -0.00013 
1.02695 0.10000 -0.00015 
1.02694 0.10000 -0.00015 
1.02676 0.10000 -0.00017 
1.02675 0.10000 -0.00017 
1.02655 0.10000 -0.00020 
1.02654 0.10000 -0.00020 
1.02632 0.10000 -0.00023 
1.02631 0.10000 -0.00023 
1.02608 0.10000 -0.00026 
1.02606 0.10000 -0.00026 
1.02581 0.10000 -0.00029 
1.02579 0.10000 -0.00030 
1.02552 0.10000 -0.00033 
1.02550 0.10000 -0.00033 
1.02521 0.10000 -0.00037 
1.02519 0.10000 -0.00037 
1.02488 0.10000 -0.00041 
1.02486 0.10000 -0.00042 
1.02452 0.10000 -0.00046 
1.02450 0.10000 -0.00046 
1.02414 0.10000 -0.00051 
1.02412 0.10000 -0.00051 
1.02373 0.10000 -0.00056 
1.02371 0.10000 -0.00056 
1.02329 0.10000 -0.00062 
1.02327 0.10000 -0.00062 
1.02283 0.10000 -0.00068 
1.02280 0.10000 -0.00068 
1.02233 0.10000 -0.00074 
1.02230 0.10000 -0.00074 
1.02180 0.10000 -0.00081 
1.02177 0.10000 -0.00081 
1.02123 0.10000 -0.00088 
1.02120 0.10000 -0.00088 
1.02062 0.10000 -0.00096 
1.02059 0.10000 -0.00096 
1.01998 0.10000 -0.00104 
1.01994 0.10000 -0.00104 
1.01929 0.10000 -0.00112 
1.01925 0.10000 -0.00113 
1.01856 0.10000 -0.00122 
1.01852 0.10000 -0.00122 
1.01778 0.10000 -0.00132 
1.01773 0.10000 -0.00132 
1.01694 0.10000 -0.00142 
1.01690 0.10000 -0.00143 
1.01606 0.10000 -0.00153 
1.01601 0.10000 -0.00154 
1.01511 0.10000 -0.00165 
1.01506 0.10000 -0.00166 
1.01410 0.10000 -0.00178 
1.01405 0.10000 -0.00178 
1.01303 0.10000 -0.00191 
1.01297 0.10000 -0.00192 
1.01189 0.10000 -0.00205 
1.01183 0.10000 -0.00206 
1.01067 0.10000 -0.00220 
1.01060 0.10000 -0.00221 
1.00937 0.10000 -0.00237 
1.00930 0.10000 -0.00237 
1.00798 0.10000 -0.00254 
1.00791 0.10000 -0.00255 
1.00651 0.10000 -0.00272 
1.00643 0.10000 -0.00273 
1.00493 0.10000 -0.00291 
1.00485 0.10000 -0.00292 
1.00326 0.10000 -0.00312 
1.00317 0.10000 -0.00313 
1.00147 0.10000 -0.00334 
1.00137 0.10000 -0.00335 
0.99956 0.10000 -0.00357 
0.99946 0.10000 -0.00359 
0.99752 0.10000 -0.00382 
0.99742 0.10000 -0.00384 
0.99536 0.10000 -0.00409 
0.99524 0.10000 -0.00410 
0.99304 0.10000 -0.00437 
0.99292 0.10000 -0.00439 
0.99057 0.10000 -0.00468 
0.99044 0.10000 -0.00469 
0.98794 0.10000 -0.00500 
0.98780 0.10000 -0.00502 
0.98514 0.10000 -0.00534 
0.98499 0.10000 -0.00536 
0.98214 0.10000 -0.00571 
0.98198 0.10000 -0.00573 
0.97895 0.10000 -0.00611 
0.97878 0.10000 -0.00613 
0.97555 0.10000 -0.00653 
0.97537 0.10000 -0.00655 
0.97193 0.10000 -0.00698 
0.97174 0.10000 -0.00700 
0.96807 0.10000 -0.00745 
0.96786 0.10000 -0.00748 
0.96396 0.10000 -0.00796 
0.96373 0.10000 -0.00799 
0.95958 0.10000 -0.00850 
0.95934 0.10000 -0.00853 
0.95491 0.10000 -0.00907 
0.95466 0.10000 -0.00910 
0.94995 0.10000 -0.00968 
0.94969 0.10000 -0.00971 
0.94468 0.10000 -0.01032 
0.94439 0.10000 -0.01035 
0.93907 0.10000 -0.01100 
0.93877 0.10000 -0.01103 
0.93311 0.10000 -0.01171 
0.93279 0.10000 -0.01175 
0.92678 0.10000 -0.01246 
0.92644 0.10000 -0.01250 
0.92007 0.10000 -0.01324 
0.91971 0.10000 -0.01329 
0.91296 0.10000 -0.01407 
0.91258 0.10000 -0.01411 
0.90542 0.10000 -0.01493 
0.90502 0.10000 -0.01497 
0.89745 0.10000 -0.01582 
0.89703 0.10000 -0.01587 
0.88903 0.10000 -0.01675 
0.88858 0.10000 -0.01680 
0.88014 0.10000 -0.01772 
0.87966 0.10000 -0.01777 
0.87076 0.10000 -0.01872 
0.87026 0.10000 -0.01878 
0.86088 0.10000 -0.01976 
0.86035 0.10000 -0.01981 
0.85050 0.10000 -0.02082 
0.84994 0.10000 -0.02088 
0.83960 0.10000 -0.02192 
0.83901 0.10000 -0.02198 
0.82817 0.10000 -0.02305 
0.82755 0.10000 -0.02311 
0.81621 0.10000 -0.02421 
0.81556 0.10000 -0.02428 
0.80371 0.10000 -0.02540 
0.80304 0.10000 -0.02547 
0.79068 0.10000 -0.02662 
0.78998 0.10000 -0.02669 
0.77713 0.10000 -0.02787 
0.77640 0.10000 -0.02793 
0.76305 0.10000 -0.02913 
0.76230 0.10000 -0.02920 
0.74847 0.10000 -0.03042 
0.74768 0.10000 -0.03049 
0.73339 0.10000 -0.03172 
0.73258 0.10000 -0.03179 
0.71784 0.10000 -0.03303 
0.71701 0.10000 -0.03310 
0.70185 0.10000 -0.03435 
0.70099 0.10000 -0.03442 
0.68543 0.10000 -0.03566 
0.68455 0.10000 -0.03573 
0.66864 0.10000 -0.03695 
0.66774 0.10000 -0.03702 
0.65150 0.10000 -0.03822 
0.65058 0.10000 -0.03829 
0.63405 0.10000 -0.03945 
0.63311 0.10000 -0.03952 
0.61634 0.10000 -0.04063 
0.61539 0.10000 -0.04069 
0.59842 0.10000 -0.04174 
0.59746 0.10000 -0.04180 
0.58034 0.10000 -0.04277 
0.57937 0.10000 -0.04283 
0.56214 0.10000 -0.04371 
0.56117 0.10000 -0.04376 
0.54389 0.10000 -0.04455 
0.54291 0.10000 -0.04460 
0.52564 0.10000 -0.04528 
0.52466 0.10000 -0.04532 
0.50743 0.10000 -0.04590 
0.50646 0.10000 -0.04593 
0.48933 0.10000 -0.04639 
0.48837 0.10000 -0.04642 
0.47139 0.10000 -0.04677 
0.47043 0.10000 -0.04679 
0.45366 0.10000 -0.04703 
0.45271 0.10000 -0.04704 
0.43618 0.10000 -0.04718 
0.43525 0.10000 -0.04718 
0.41901 0.10000 -0.04722 
0.41809 0.10000 -0.04722 
0.40217 0.10000 -0.04716 
0.40127 0.10000 -0.04715 
0.38572 0.10000 -0.04701 
0.38484 0.10000 -0.04700 
0.36968 0.10000 -0.04678 
0.36882 0.10000 -0.04676 
0.35408 0.10000 -0.04647 
0.35325 0.10000 -0.04646 
0.33895 0.10000 -0.04611 
0.33814 0.10000 -0.04609 
0.32431 0.10000 -0.04568 
0.32353 0.10000 -0.04566 
0.31018 0.10000 -0.04521 
0.30943 0.10000 -0.04519 
0.29657 0.10000 -0.04470 
0.29584 0.10000 -0.04467 
0.28348 0.10000 -0.04416 
0.28278 0.10000 -0.04413 
0.27093 0.10000 -0.04358 
0.27026 0.10000 -0.04355 
0.25891 0.10000 -0.04298 
0.25827 0.10000 -0.04294 
0.24743 0.10000 -0.04235 
0.24681 0.10000 -0.04232 
0.23647 0.10000 -0.04171 
0.23588 0.10000 -0.04168 
0.22603 0.10000 -0.04105 
0.22547 0.10000 -0.04102 
0.21610 0.10000 -0.04038 
0.21557 0.10000 -0.04035 
0.20667 0.10000 -0.03970 
0.20617 0.10000 -0.03967 
0.19772 0.10000 -0.03902 
0.19725 0.10000 -0.03898 
0.18925 0.10000 -0.03833 
0.18880 0.10000 -0.03829 
0.18123 0.10000 -0.03764 
0.18081 0.10000 -0.03760 
0.17365 0.10000 -0.03694 
0.17325 0.10000 -0.03691 
0.16650 0.10000 -0.03626 
0.16611 0.10000 -0.03622 
0.15974 0.10000 -0.03557 
0.15938 0.10000 -0.03553 
0.15338 0.10000 -0.03489 
0.15304 0.10000 -0.03486 
0.14738 0.10000 -0.03422 
0.14706 0.10000 -0.03419 
0.14174 0.10000 -0.03357 
0.14143 0.10000 -0.03353 
0.13642 0.10000 -0.03292 
0.13614 0.10000 -0.03289 
0.13143 0.10000 -0.03229 
0.13116 0.10000 -0.03225 
0.12613 0.10000 -0.03527 
0.12569 0.10000 -0.03603 
0.11911 0.10000 -0.04942 
0.11843 0.10000 -0.05057 
0.11362 0.10000 -0.05566 
0.11309 0.10000 -0.05560 
0.10954 0.10000 -0.05527 
0.10904 0.10000 -0.05522 
0.10569 0.10000 -0.05500 
0.10520 0.10000 -0.05496 
0.10203 0.10000 -0.05488 
0.10156 0.10000 -0.05486 
0.09852 0.10000 -0.05491 
0.09806 0.10000 -0.05491 
0.09515 0.10000 -0.05506 
0.09469 0.10000 -0.05509 
0.09187 0.10000 -0.05537 
0.09139 0.10000 -0.05541 
0.08863 0.10000 -0.05577 
0.08813 0.10000 -0.05582 
0.08543 0.10000 -0.05617 
0.08491 0.10000 -0.05624 
0.08227 0.10000 -0.05652 
0.08173 0.10000 -0.05658 
0.07916 0.10000 -0.05673 
0.07858 0.10000 -0.05676 
0.07610 0.10000 -0.05676 
0.07549 0.10000 -0.05675 
0.07313 0.10000 -0.05653 
0.07251 0.10000 -0.05645 
0.07029 0.10000 -0.05600 
0.06965 0.10000 -0.05586 
0.06759 0.10000 -0.05518 
0.06696 0.10000 -0.05497 
0.06511 0.10000 -0.05401 
0.06450 0.10000 -0.05369 
0.06286 0.10000 -0.05249 
0.06229 0.10000 -0.05208 
0.06085 0.10000 -0.05072 
0.06034 0.10000 -0.05023 
0.05912 0.10000 -0.04870 
0.05866 0.10000 -0.04815 
0.05765 0.10000 -0.04650 
0.05727 0.10000 -0.04589 
0.05647 0.10000 -0.04414 
0.05617 0.10000 -0.04350 
0.05552 0.10000 -0.04174 
0.05528 0.10000 -0.04110 
0.05478 0.10000 -0.03934 
0.05460 0.10000 -0.03871 
0.05432 0.10000 -0.03688 
0.05421 0.10000 -0.03626 
0.05402 0.10000 -0.03449 
0.05394 0.10000 -0.03391 
0.05387 0.10000 -0.03216 
0.05385 0.10000 -0.03161 
0.05385 0.10000 -0.02992 
0.05382 0.10000 -0.02945 
0.05383 0.10000 -0.02790 
0.05383 0.10000 -0.02746 
0.05389 0.10000 -0.02598 
0.05391 0.10000 -0.02558 
0.05403 0.10000 -0.02416 
0.05406 0.10000 -0.02380 
0.05422 0.10000 -0.02245 
0.05426 0.10000 -0.02214 
0.05444 0.10000 -0.02085 
0.05448 0.10000 -0.02057 
0.05463 0.10000 -0.01939 
0.05466 0.10000 -0.01914 
0.05481 0.10000 -0.01803 
0.05484 0.10000 -0.01782 
0.05500 0.10000 -0.01677 
0.05503 0.10000 -0.01658 
0.05518 0.10000 -0.01560 
0.05520 0.10000 -0.01543 
0.05535 0.10000 -0.01450 
0.05536 0.10000 -0.01436 
0.05546 0.10000 -0.01350 
0.05546 0.10000 -0.01338 
0.05547 0.10000 -0.01262 
0.05547 0.10000 -0.01251 
0.05548 0.10000 -0.01178 
0.05549 0.10000 -0.01168 
0.05556 0.10000 -0.01095 
0.05557 0.10000 -0.01086 
0.05559 0.10000 -0.01018 
0.05560 0.10000 -0.01010 
0.05559 0.10000 -0.00946 
0.05559 0.10000 -0.00938 
0.05557 0.10000 -0.00877 
0.05557 0.10000 -0.00870 
0.05549 0.10000 -0.00814 
0.05549 0.10000 -0.00807 
0.05544 0.10000 -0.00752 
0.05544 0.10000 -0.00745 
0.05539 0.10000 -0.00692 
0.05538 0.10000 -0.00686 
0.05529 0.10000 -0.00634 
0.05528 0.10000 -0.00628 
0.05517 0.10000 -0.00578 
0.05516 0.10000 -0.00572 
0.05507 0.10000 -0.00523 
0.05506 0.10000 -0.00518 
0.05498 0.10000 -0.00472 
0.05497 0.10000 -0.00467 
0.05485 0.10000 -0.00420 
0.05484 0.10000 -0.00415 
0.05471 0.10000 -0.00364 
0.05470 0.10000 -0.00358 
0.05459 0.10000 -0.00310 
0.05458 0.10000 -0.00305 
0.05446 0.10000 -0.00267 
0.05445 0.10000 -0.00263 
0.05431 0.10000 -0.00220 
0.05429 0.10000 -0.00215 
0.05411 0.10000 -0.00150 
0.05409 0.10000 -0.00143 
0.05391 0.10000 -0.00081 
0.05389 0.10000 -0.00073 
0.05377 0.10000 -0.00033 
0.05375 0.10000 -0.00028 
0.05370 0.10000 -0.00003 
0.05369 0.10000 0.00000 
0.05368 0.10000 0.00003 
0.05355 0.10000 0.00029 
0.05352 0.10000 0.00034 
0.05330 0.10000 0.00075 
0.05301 0.10000 0.00140 
0.05298 0.10000 0.00148 
0.05268 0.10000 0.00220 
0.05265 0.10000 0.00230 
0.05234 0.10000 0.00283 
0.05231 0.10000 0.00290 
0.05190 0.10000 0.00334 
0.05184 0.10000 0.00341 
0.05150 0.10000 0.00398 
0.05145 0.10000 0.00406 
0.05119 0.10000 0.00472 
0.05115 0.10000 0.00482 
0.05068 0.10000 0.00547 
0.05061 0.10000 0.00558 
0.05001 0.10000 0.00623 
0.04990 0.10000 0.00635 
0.04930 0.10000 0.00705 
0.04917 0.10000 0.00720 
0.04864 0.10000 0.00796 
0.04854 0.10000 0.00812 
0.04791 0.10000 0.00894 
0.04778 0.10000 0.00913 
0.04696 0.10000 0.01002 
0.04676 0.10000 0.01025 
0.04603 0.10000 0.01115 
0.04583 0.10000 0.01141 
0.04502 0.10000 0.01240 
0.04480 0.10000 0.01269 
0.04393 0.10000 0.01376 
0.04372 0.10000 0.01410 
0.04290 0.10000 0.01520 
0.04262 0.10000 0.01560 
0.04170 0.10000 0.01679 
0.04133 0.10000 0.01727 
0.04048 0.10000 0.01849 
0.04008 0.10000 0.01904 
0.03930 0.10000 0.02029 
0.03889 0.10000 0.02090 
0.03804 0.10000 0.02224 
0.03768 0.10000 0.02290 
0.03676 0.10000 0.02434 
0.03637 0.10000 0.02510 
0.03560 0.10000 0.02653 
0.03511 0.10000 0.02743 
0.03426 0.10000 0.02897 
0.03369 0.10000 0.03003 
0.03284 0.10000 0.03164 
0.03223 0.10000 0.03286 
0.03158 0.10000 0.03441 
0.03094 0.10000 0.03578 
0.03027 0.10000 0.03741 
0.02963 0.10000 0.03893 
0.02900 0.10000 0.04061 
0.02841 0.10000 0.04228 
0.02789 0.10000 0.04394 
0.02735 0.10000 0.04576 
0.02692 0.10000 0.04742 
0.02646 0.10000 0.04938 
0.02616 0.10000 0.05103 
0.02578 0.10000 0.05316 
0.02560 0.10000 0.05479 
0.02535 0.10000 0.05707 
0.02524 0.10000 0.05872 
0.02516 0.10000 0.06111 
0.02517 0.10000 0.06274 
0.02526 0.10000 0.06523 
0.02543 0.10000 0.06679 
0.02574 0.10000 0.06930 
0.02604 0.10000 0.07084 
0.02654 0.10000 0.07338 
0.02706 0.10000 0.07482 
0.02792 0.10000 0.07718 
0.02864 0.10000 0.07855 
0.02973 0.10000 0.08083 
0.03064 0.10000 0.08214 
0.03200 0.10000 0.08421 
0.03317 0.10000 0.08538 
0.03481 0.10000 0.08711 
0.03625 0.10000 0.08809 
0.03812 0.10000 0.08941 
0.03985 0.10000 0.09018 
0.04183 0.10000 0.09114 
0.04385 0.10000 0.09166 
0.04590 0.10000 0.09225 
0.04821 0.10000 0.09245 
0.05025 0.10000 0.09266 
0.05829 0.10000 0.07981 
0.06090 0.10000 0.07738 
0.07441 0.10000 0.04936 
0.07680 0.10000 0.04494 
0.08528 0.10000 0.02747 
0.08602 0.10000 0.02595 
0.08794 0.10000 0.02641 
0.08841 0.10000 0.02541 
0.09047 0.10000 0.02588 
0.09059 0.10000 0.02590 
0.09278 0.10000 0.02636 
0.09291 0.10000 0.02638 
0.09525 0.10000 0.02683 
0.09538 0.10000 0.02686 
0.09788 0.10000 0.02731 
0.09803 0.10000 0.02733 
0.10069 0.10000 0.02779 
0.10084 0.10000 0.02781 
0.10368 0.10000 0.02828 
0.10384 0.10000 0.02831 
0.10687 0.10000 0.02879 
0.10704 0.10000 0.02882 
0.11027 0.10000 0.02931 
0.11045 0.10000 0.02934 
0.11390 0.10000 0.02986 
0.11409 0.10000 0.02989 
0.11776 0.10000 0.03042 
0.11796 0.10000 0.03045 
0.12187 0.10000 0.03101 
0.12209 0.10000 0.03104 
0.12625 0.10000 0.03161 
0.12649 0.10000 0.03164 
0.13091 0.10000 0.03222 
0.13116 0.10000 0.03225 
0.13587 0.10000 0.03285 
0.13614 0.10000 0.03289 
0.14115 0.10000 0.03350 
0.14143 0.10000 0.03353 
0.14676 0.10000 0.03415 
0.14706 0.10000 0.03419 
0.15272 0.10000 0.03482 
0.15304 0.10000 0.03486 
0.15904 0.10000 0.03550 
0.15938 0.10000 0.03553 
0.16575 0.10000 0.03618 
0.16611 0.10000 0.03622 
0.17287 0.10000 0.03687 
0.17325 0.10000 0.03691 
0.18040 0.10000 0.03756 
0.18081 0.10000 0.03760 
0.18837 0.10000 0.03825 
0.18880 0.10000 0.03829 
0.19680 0.10000 0.03894 
0.19725 0.10000 0.03898 
0.20569 0.10000 0.03963 
0.20617 0.10000 0.03967 
0.21507 0.10000 0.04031 
0.21557 0.10000 0.04035 
0.22494 0.10000 0.04098 
0.22547 0.10000 0.04102 
0.23533 0.10000 0.04164 
0.23588 0.10000 0.04168 
0.24623 0.10000 0.04228 
0.24681 0.10000 0.04232 
0.25766 0.10000 0.04291 
0.25827 0.10000 0.04294 
0.26962 0.10000 0.04351 
0.27026 0.10000 0.04355 
0.28211 0.10000 0.04409 
0.28278 0.10000 0.04413 
0.29514 0.10000 0.04464 
0.29584 0.10000 0.04467 
0.30870 0.10000 0.04516 
0.30943 0.10000 0.04519 
0.32278 0.10000 0.04564 
0.32353 0.10000 0.04566 
0.33736 0.10000 0.04606 
0.33814 0.10000 0.04609 
0.35244 0.10000 0.04644 
0.35325 0.10000 0.04646 
0.36799 0.10000 0.04675 
0.36882 0.10000 0.04676 
0.38398 0.10000 0.04699 
0.38484 0.10000 0.04700 
0.40039 0.10000 0.04715 
0.40127 0.10000 0.04715 
0.41719 0.10000 0.04721 
0.41809 0.10000 0.04722 
0.43433 0.10000 0.04719 
0.43525 0.10000 0.04718 
0.45178 0.10000 0.04705 
0.45271 0.10000 0.04704 
0.46949 0.10000 0.04680 
0.47043 0.10000 0.04679 
0.48741 0.10000 0.04644 
0.48837 0.10000 0.04642 
0.50549 0.10000 0.04596 
0.50646 0.10000 0.04593 
0.52368 0.10000 0.04535 
0.52466 0.10000 0.04532 
0.54194 0.10000 0.04464 
0.54291 0.10000 0.04460 
0.56019 0.10000 0.04381 
0.56117 0.10000 0.04376 
0.57839 0.10000 0.04288 
0.57937 0.10000 0.04283 
0.59649 0.10000 0.04185 
0.59746 0.10000 0.04180 
0.61443 0.10000 0.04075 
0.61539 0.10000 0.04069 
0.63217 0.10000 0.03958 
0.63311 0.10000 0.03952 
0.64964 0.10000 0.03836 
0.65058 0.10000 0.03829 
0.66682 0.10000 0.03709 
0.66774 0.10000 0.03702 
0.68366 0.10000 0.03580 
0.68455 0.10000 0.03573 
0.70011 0.10000 0.03449 
0.70099 0.10000 0.03442 
0.71615 0.10000 0.03317 
0.71701 0.10000 0.03310 
0.73175 0.10000 0.03186 
0.73258 0.10000 0.03179 
0.74688 0.10000 0.03056 
0.74768 0.10000 0.03049 
0.76151 0.10000 0.02927 
0.76230 0.10000 0.02920 
0.77565 0.10000 0.02800 
0.77640 0.10000 0.02793 
0.78926 0.10000 0.02675 
0.78998 0.10000 0.02669 
0.80234 0.10000 0.02553 
0.80304 0.10000 0.02547 
0.81489 0.10000 0.02434 
0.81556 0.10000 0.02428 
0.82691 0.10000 0.02318 
0.82755 0.10000 0.02311 
0.83840 0.10000 0.02204 
0.83901 0.10000 0.02198 
0.84936 0.10000 0.02094 
0.84994 0.10000 0.02088 
0.85980 0.10000 0.01987 
0.86035 0.10000 0.01981 
0.86973 0.10000 0.01883 
0.87026 0.10000 0.01878 
0.87916 0.10000 0.01783 
0.87966 0.10000 0.01777 
0.88810 0.10000 0.01686 
0.88858 0.10000 0.01680 
0.89657 0.10000 0.01592 
0.89703 0.10000 0.01587 
0.90459 0.10000 0.01502 
0.90502 0.10000 0.01497 
0.91217 0.10000 0.01416 
0.91258 0.10000 0.01411 
0.91933 0.10000 0.01333 
0.91971 0.10000 0.01329 
0.92608 0.10000 0.01254 
0.92644 0.10000 0.01250 
0.93245 0.10000 0.01179 
0.93279 0.10000 0.01175 
0.93845 0.10000 0.01107 
0.93877 0.10000 0.01103 
0.94409 0.10000 0.01039 
0.94439 0.10000 0.01035 
0.94940 0.10000 0.00975 
0.94969 0.10000 0.00971 
0.95440 0.10000 0.00914 
0.95466 0.10000 0.00910 
0.95909 0.10000 0.00856 
0.95934 0.10000 0.00853 
0.96350 0.10000 0.00802 
0.96373 0.10000 0.00799 
0.96764 0.10000 0.00751 
0.96786 0.10000 0.00748 
0.97153 0.10000 0.00703 
0.97174 0.10000 0.00700 
0.97518 0.10000 0.00657 
0.97537 0.10000 0.00655 
0.97860 0.10000 0.00615 
0.97878 0.10000 0.00613 
0.98181 0.10000 0.00575 
0.98198 0.10000 0.00573 
0.98482 0.10000 0.00538 
0.98499 0.10000 0.00536 
0.98765 0.10000 0.00503 
0.98780 0.10000 0.00502 
0.99030 0.10000 0.00471 
0.99044 0.10000 0.00469 
0.99278 0.10000 0.00440 
0.99292 0.10000 0.00439 
0.99511 0.10000 0.00412 
0.99524 0.10000 0.00410 
0.99730 0.10000 0.00385 
0.99742 0.10000 0.00384 
0.99935 0.10000 0.00360 
0.99946 0.10000 0.00359 
1.00127 0.10000 0.00336 
1.00137 0.10000 0.00335 
1.00307 0.10000 0.00314 
1.00317 0.10000 0.00313 
1.00476 0.10000 0.00293 
1.00485 0.10000 0.00292 
1.00634 0.10000 0.00274 
1.00643 0.10000 0.00273 
1.00783 0.10000 0.00256 
1.00791 0.10000 0.00255 
1.00923 0.10000 0.00238 
1.00930 0.10000 0.00237 
1.01053 0.10000 0.00222 
1.01060 0.10000 0.00221 
1.01176 0.10000 0.00207 
1.01183 0.10000 0.00206 
1.01291 0.10000 0.00192 
1.01297 0.10000 0.00192 
1.01399 0.10000 0.00179 
1.01405 0.10000 0.00178 
1.01501 0.10000 0.00166 
1.01506 0.10000 0.00166 
1.01596 0.10000 0.00154 
1.01601 0.10000 0.00154 
1.01685 0.10000 0.00143 
1.01690 0.10000 0.00143 
1.01769 0.10000 0.00133 
1.01773 0.10000 0.00132 
1.01848 0.10000 0.00123 
1.01852 0.10000 0.00122 
1.01921 0.10000 0.00113 
1.01925 0.10000 0.00113 
1.01991 0.10000 0.00105 
1.01994 0.10000 0.00104 
1.02056 0.10000 0.00096 
1.02059 0.10000 0.00096 
1.02117 0.10000 0.00089 
1.02120 0.10000 0.00088 
1.02174 0.10000 0.00081 
1.02177 0.10000 0.00081 
1.02227 0.10000 0.00075 
1.02230 0.10000 0.00074 
1.02278 0.10000 0.00068 
1.02280 0.10000 0.00068 
1.02325 0.10000 0.00062 
1.02327 0.10000 0.00062 
1.02368 0.10000 0.00057 
1.02371 0.10000 0.00056 
1.02410 0.10000 0.00051 
1.02412 0.10000 0.00051 
1.02448 0.10000 0.00046 
1.02450 0.10000 0.00046 
1.02484 0.10000 0.00042 
1.02486 0.10000 0.00042 
1.02518 0.10000 0.00037 
1.02519 0.10000 0.00037 
1.02549 0.10000 0.00033 
1.02550 0.10000 0.00033 
1.02578 0.10000 0.00030 
1.02579 0.10000 0.00030 
1.02605 0.10000 0.00026 
1.02606 0.10000 0.00026 
1.02630 0.10000 0.00023 
1.02631 0.10000 0.00023 
1.02653 0.10000 0.00020 
1.02654 0.10000 0.00020 
1.02674 0.10000 0.00017 
1.02675 0.10000 0.00017 
1.02693 0.10000 0.00015 
1.02694 0.10000 0.00015 
1.02711 0.10000 0.00013 
1.02712 0.10000 0.00013 
1.02727 0.10000 0.00011 
1.02728 0.10000 0.00010 
1.02742 0.10000 0.00009 
1.02743 0.10000 0.00009 
1.02755 0.10000 0.00007 
1.02756 0.10000 0.00007 
1.02766 0.10000 0.00006 
1.02767 0.10000 0.00005 
1.02777 0.10000 0.00004 
1.02777 0.10000 0.00004 
1.02785 0.10000 0.00003 
1.02786 0.10000 0.00003 
1.02793 0.10000 0.00002 
1.02793 0.10000 0.00002 
1.02799 0.10000 0.00001 
1.02799 0.10000 0.00001 
1.02803 0.10000 0.00001 
1.02803 0.10000 0.00001 
1.02807 0.10000 0.00000 
1.02807 0.10000 0.00000 
1.02809 0.10000 0.00000 
1.02809 0.10000 0.00000 
1.02809 0.10000 0.00000 
1.02809 0.10000 0.00000 

ZONE T="SLICE_Y_0p75_BINS01_KS_1mm_SINGLE_LAYER"
1.21070 0.75000 0.00000 
1.21070 0.75000 -0.00000 
1.21069 0.75000 -0.00000 
1.21068 0.75000 -0.00000 
1.21068 0.75000 -0.00000 
1.21066 0.75000 -0.00000 
1.21065 0.75000 -0.00001 
1.21063 0.75000 -0.00001 
1.21062 0.75000 -0.00001 
1.21058 0.75000 -0.00001 
1.21057 0.75000 -0.00002 
1.21053 0.75000 -0.00002 
1.21051 0.75000 -0.00002 
1.21046 0.75000 -0.00003 
1.21044 0.75000 -0.00003 
1.21039 0.75000 -0.00004 
1.21036 0.75000 -0.00004 
1.21030 0.75000 -0.00005 
1.21027 0.75000 -0.00006 
1.21020 0.75000 -0.00006 
1.21016 0.75000 -0.00007 
1.21009 0.75000 -0.00008 
1.21005 0.75000 -0.00008 
1.20996 0.75000 -0.00009 
1.20992 0.75000 -0.00010 
1.20982 0.75000 -0.00011 
1.20978 0.75000 -0.00012 
1.20967 0.75000 -0.00013 
1.20962 0.75000 -0.00014 
1.20951 0.75000 -0.00015 
1.20945 0.75000 -0.00016 
1.20933 0.75000 -0.00018 
1.20927 0.75000 -0.00018 
1.20914 0.75000 -0.00020 
1.20907 0.75000 -0.00021 
1.20893 0.75000 -0.00023 
1.20886 0.75000 -0.00024 
1.20870 0.75000 -0.00026 
1.20862 0.75000 -0.00027 
1.20846 0.75000 -0.00029 
1.20838 0.75000 -0.00030 
1.20820 0.75000 -0.00032 
1.20811 0.75000 -0.00033 
1.20792 0.75000 -0.00036 
1.20782 0.75000 -0.00037 
1.20762 0.75000 -0.00040 
1.20751 0.75000 -0.00041 
1.20729 0.75000 -0.00044 
1.20719 0.75000 -0.00045 
1.20695 0.75000 -0.00048 
1.20683 0.75000 -0.00050 
1.20658 0.75000 -0.00053 
1.20646 0.75000 -0.00054 
1.20619 0.75000 -0.00058 
1.20606 0.75000 -0.00059 
1.20577 0.75000 -0.00063 
1.20563 0.75000 -0.00065 
1.20533 0.75000 -0.00069 
1.20517 0.75000 -0.00071 
1.20485 0.75000 -0.00075 
1.20469 0.75000 -0.00077 
1.20434 0.75000 -0.00081 
1.20417 0.75000 -0.00083 
1.20380 0.75000 -0.00088 
1.20361 0.75000 -0.00090 
1.20322 0.75000 -0.00095 
1.20303 0.75000 -0.00098 
1.20261 0.75000 -0.00103 
1.20240 0.75000 -0.00106 
1.20195 0.75000 -0.00111 
1.20173 0.75000 -0.00114 
1.20125 0.75000 -0.00120 
1.20101 0.75000 -0.00123 
1.20051 0.75000 -0.00130 
1.20025 0.75000 -0.00133 
1.19972 0.75000 -0.00140 
1.19944 0.75000 -0.00143 
1.19887 0.75000 -0.00150 
1.19858 0.75000 -0.00154 
1.19797 0.75000 -0.00161 
1.19766 0.75000 -0.00165 
1.19701 0.75000 -0.00173 
1.19668 0.75000 -0.00177 
1.19599 0.75000 -0.00186 
1.19564 0.75000 -0.00190 
1.19490 0.75000 -0.00199 
1.19452 0.75000 -0.00204 
1.19373 0.75000 -0.00214 
1.19334 0.75000 -0.00219 
1.19249 0.75000 -0.00229 
1.19207 0.75000 -0.00234 
1.19117 0.75000 -0.00245 
1.19072 0.75000 -0.00251 
1.18976 0.75000 -0.00263 
1.18928 0.75000 -0.00269 
1.18826 0.75000 -0.00281 
1.18775 0.75000 -0.00287 
1.18666 0.75000 -0.00301 
1.18611 0.75000 -0.00308 
1.18495 0.75000 -0.00322 
1.18437 0.75000 -0.00329 
1.18313 0.75000 -0.00344 
1.18251 0.75000 -0.00352 
1.18119 0.75000 -0.00368 
1.18052 0.75000 -0.00376 
1.17911 0.75000 -0.00393 
1.17841 0.75000 -0.00402 
1.17691 0.75000 -0.00420 
1.17615 0.75000 -0.00430 
1.17455 0.75000 -0.00449 
1.17374 0.75000 -0.00459 
1.17204 0.75000 -0.00480 
1.17118 0.75000 -0.00491 
1.16936 0.75000 -0.00514 
1.16845 0.75000 -0.00525 
1.16651 0.75000 -0.00549 
1.16553 0.75000 -0.00561 
1.16347 0.75000 -0.00587 
1.16243 0.75000 -0.00599 
1.16023 0.75000 -0.00627 
1.15912 0.75000 -0.00640 
1.15678 0.75000 -0.00669 
1.15560 0.75000 -0.00684 
1.15310 0.75000 -0.00714 
1.15185 0.75000 -0.00730 
1.14919 0.75000 -0.00762 
1.14786 0.75000 -0.00778 
1.14504 0.75000 -0.00813 
1.14362 0.75000 -0.00830 
1.14062 0.75000 -0.00866 
1.13911 0.75000 -0.00884 
1.13592 0.75000 -0.00922 
1.13432 0.75000 -0.00942 
1.13093 0.75000 -0.00982 
1.12923 0.75000 -0.01002 
1.12564 0.75000 -0.01044 
1.12384 0.75000 -0.01065 
1.12003 0.75000 -0.01109 
1.11812 0.75000 -0.01131 
1.11409 0.75000 -0.01177 
1.11206 0.75000 -0.01200 
1.10780 0.75000 -0.01248 
1.10565 0.75000 -0.01272 
1.10115 0.75000 -0.01322 
1.09888 0.75000 -0.01347 
1.09413 0.75000 -0.01398 
1.09174 0.75000 -0.01424 
1.08672 0.75000 -0.01478 
1.08420 0.75000 -0.01505 
1.07892 0.75000 -0.01560 
1.07626 0.75000 -0.01588 
1.07071 0.75000 -0.01645 
1.06792 0.75000 -0.01674 
1.06209 0.75000 -0.01732 
1.05916 0.75000 -0.01762 
1.05305 0.75000 -0.01822 
1.04998 0.75000 -0.01853 
1.04358 0.75000 -0.01915 
1.04037 0.75000 -0.01946 
1.03369 0.75000 -0.02009 
1.03033 0.75000 -0.02041 
1.02337 0.75000 -0.02106 
1.01987 0.75000 -0.02139 
1.01262 0.75000 -0.02205 
1.00898 0.75000 -0.02239 
1.00146 0.75000 -0.02306 
0.99767 0.75000 -0.02340 
0.98988 0.75000 -0.02409 
0.98596 0.75000 -0.02443 
0.97791 0.75000 -0.02513 
0.97386 0.75000 -0.02548 
0.96555 0.75000 -0.02618 
0.96138 0.75000 -0.02653 
0.95284 0.75000 -0.02723 
0.94854 0.75000 -0.02759 
0.93978 0.75000 -0.02828 
0.93537 0.75000 -0.02864 
0.92640 0.75000 -0.02933 
0.92189 0.75000 -0.02967 
0.91274 0.75000 -0.03035 
0.90814 0.75000 -0.03069 
0.89883 0.75000 -0.03134 
0.89414 0.75000 -0.03167 
0.88469 0.75000 -0.03230 
0.87994 0.75000 -0.03261 
0.87038 0.75000 -0.03320 
0.86556 0.75000 -0.03350 
0.85592 0.75000 -0.03405 
0.85106 0.75000 -0.03432 
0.84136 0.75000 -0.03482 
0.83648 0.75000 -0.03507 
0.82674 0.75000 -0.03552 
0.82185 0.75000 -0.03574 
0.81211 0.75000 -0.03613 
0.80722 0.75000 -0.03632 
0.79751 0.75000 -0.03665 
0.79263 0.75000 -0.03681 
0.78298 0.75000 -0.03707 
0.77813 0.75000 -0.03720 
0.76857 0.75000 -0.03740 
0.76376 0.75000 -0.03750 
0.75431 0.75000 -0.03764 
0.74955 0.75000 -0.03770 
0.74024 0.75000 -0.03778 
0.73556 0.75000 -0.03782 
0.72641 0.75000 -0.03783 
0.72180 0.75000 -0.03784 
0.71284 0.75000 -0.03781 
0.70833 0.75000 -0.03779 
0.69956 0.75000 -0.03771 
0.69516 0.75000 -0.03767 
0.68662 0.75000 -0.03754 
0.68232 0.75000 -0.03748 
0.67401 0.75000 -0.03732 
0.66984 0.75000 -0.03723 
0.66178 0.75000 -0.03704 
0.65773 0.75000 -0.03694 
0.64994 0.75000 -0.03671 
0.64602 0.75000 -0.03660 
0.63850 0.75000 -0.03634 
0.63472 0.75000 -0.03622 
0.62747 0.75000 -0.03594 
0.62383 0.75000 -0.03580 
0.61687 0.75000 -0.03551 
0.61337 0.75000 -0.03536 
0.60669 0.75000 -0.03506 
0.60333 0.75000 -0.03490 
0.59694 0.75000 -0.03458 
0.59372 0.75000 -0.03442 
0.58761 0.75000 -0.03408 
0.58454 0.75000 -0.03392 
0.57871 0.75000 -0.03357 
0.57578 0.75000 -0.03340 
0.57022 0.75000 -0.03305 
0.56743 0.75000 -0.03287 
0.56215 0.75000 -0.03252 
0.55950 0.75000 -0.03234 
0.55448 0.75000 -0.03197 
0.55196 0.75000 -0.03179 
0.54720 0.75000 -0.03143 
0.54481 0.75000 -0.03124 
0.54031 0.75000 -0.03087 
0.53804 0.75000 -0.03069 
0.53378 0.75000 -0.03032 
0.53163 0.75000 -0.03013 
0.52760 0.75000 -0.02977 
0.52558 0.75000 -0.02958 
0.52177 0.75000 -0.02921 
0.51986 0.75000 -0.02903 
0.51627 0.75000 -0.02866 
0.51446 0.75000 -0.02848 
0.51108 0.75000 -0.02812 
0.50938 0.75000 -0.02794 
0.50619 0.75000 -0.02758 
0.50459 0.75000 -0.02740 
0.50159 0.75000 -0.02705 
0.50008 0.75000 -0.02687 
0.49684 0.75000 -0.02934 
0.49534 0.75000 -0.02930 
0.49150 0.75000 -0.03682 
0.48902 0.75000 -0.04208 
0.48584 0.75000 -0.04735 
0.48317 0.75000 -0.05257 
0.48120 0.75000 -0.05233 
0.47947 0.75000 -0.05213 
0.47762 0.75000 -0.05194 
0.47597 0.75000 -0.05176 
0.47425 0.75000 -0.05160 
0.47268 0.75000 -0.05145 
0.47107 0.75000 -0.05134 
0.46957 0.75000 -0.05124 
0.46804 0.75000 -0.05122 
0.46659 0.75000 -0.05120 
0.46514 0.75000 -0.05126 
0.46372 0.75000 -0.05131 
0.46234 0.75000 -0.05141 
0.46095 0.75000 -0.05153 
0.45961 0.75000 -0.05170 
0.45821 0.75000 -0.05186 
0.45691 0.75000 -0.05205 
0.45548 0.75000 -0.05226 
0.45423 0.75000 -0.05242 
0.45276 0.75000 -0.05263 
0.45157 0.75000 -0.05273 
0.45005 0.75000 -0.05288 
0.44893 0.75000 -0.05290 
0.44735 0.75000 -0.05300 
0.44631 0.75000 -0.05295 
0.44470 0.75000 -0.05288 
0.44376 0.75000 -0.05272 
0.44216 0.75000 -0.05244 
0.44132 0.75000 -0.05217 
0.43973 0.75000 -0.05169 
0.43901 0.75000 -0.05134 
0.43748 0.75000 -0.05062 
0.43685 0.75000 -0.05020 
0.43540 0.75000 -0.04929 
0.43487 0.75000 -0.04883 
0.43354 0.75000 -0.04767 
0.43311 0.75000 -0.04717 
0.43200 0.75000 -0.04570 
0.43167 0.75000 -0.04512 
0.43075 0.75000 -0.04347 
0.43049 0.75000 -0.04287 
0.42968 0.75000 -0.04124 
0.42944 0.75000 -0.04068 
0.42869 0.75000 -0.03916 
0.42851 0.75000 -0.03860 
0.42808 0.75000 -0.03682 
0.42802 0.75000 -0.03615 
0.42785 0.75000 -0.03429 
0.42782 0.75000 -0.03360 
0.42758 0.75000 -0.03206 
0.42754 0.75000 -0.03144 
0.42735 0.75000 -0.03002 
0.42731 0.75000 -0.02943 
0.42736 0.75000 -0.02792 
0.42741 0.75000 -0.02726 
0.42762 0.75000 -0.02578 
0.42773 0.75000 -0.02508 
0.42787 0.75000 -0.02384 
0.42798 0.75000 -0.02317 
0.42796 0.75000 -0.02221 
0.42798 0.75000 -0.02166 
0.42814 0.75000 -0.02065 
0.42823 0.75000 -0.02005 
0.42852 0.75000 -0.01906 
0.42866 0.75000 -0.01845 
0.42882 0.75000 -0.01764 
0.42886 0.75000 -0.01713 
0.42887 0.75000 -0.01651 
0.42894 0.75000 -0.01600 
0.42908 0.75000 -0.01535 
0.42923 0.75000 -0.01480 
0.42944 0.75000 -0.01416 
0.42952 0.75000 -0.01368 
0.42958 0.75000 -0.01319 
0.42960 0.75000 -0.01277 
0.42960 0.75000 -0.01236 
0.42967 0.75000 -0.01191 
0.42975 0.75000 -0.01149 
0.42984 0.75000 -0.01106 
0.42991 0.75000 -0.01067 
0.42991 0.75000 -0.01030 
0.42991 0.75000 -0.00997 
0.42991 0.75000 -0.00962 
0.42993 0.75000 -0.00930 
0.42995 0.75000 -0.00895 
0.42996 0.75000 -0.00866 
0.42991 0.75000 -0.00834 
0.42987 0.75000 -0.00808 
0.42985 0.75000 -0.00776 
0.42985 0.75000 -0.00750 
0.42984 0.75000 -0.00719 
0.42981 0.75000 -0.00695 
0.42974 0.75000 -0.00667 
0.42968 0.75000 -0.00645 
0.42961 0.75000 -0.00618 
0.42957 0.75000 -0.00596 
0.42950 0.75000 -0.00568 
0.42945 0.75000 -0.00547 
0.42938 0.75000 -0.00520 
0.42932 0.75000 -0.00498 
0.42924 0.75000 -0.00473 
0.42917 0.75000 -0.00453 
0.42909 0.75000 -0.00430 
0.42902 0.75000 -0.00411 
0.42891 0.75000 -0.00386 
0.42882 0.75000 -0.00366 
0.42870 0.75000 -0.00339 
0.42860 0.75000 -0.00316 
0.42847 0.75000 -0.00292 
0.42836 0.75000 -0.00272 
0.42822 0.75000 -0.00254 
0.42812 0.75000 -0.00240 
0.42799 0.75000 -0.00215 
0.42788 0.75000 -0.00194 
0.42767 0.75000 -0.00158 
0.42750 0.75000 -0.00127 
0.42729 0.75000 -0.00097 
0.42711 0.75000 -0.00069 
0.42700 0.75000 -0.00050 
0.42689 0.75000 -0.00032 
0.42677 0.75000 -0.00015 
0.42667 0.75000 0.00000 
0.42655 0.75000 0.00016 
0.42643 0.75000 0.00034 
0.42628 0.75000 0.00053 
0.42613 0.75000 0.00072 
0.42582 0.75000 0.00104 
0.42554 0.75000 0.00137 
0.42526 0.75000 0.00177 
0.42494 0.75000 0.00221 
0.42467 0.75000 0.00252 