VARIABLES = "X_ICED" "Y_ICED" "Z_ICED"
ZONE T="SLICE_Y_0p1_BINS01_KS_1mm_SINGLE_LAYER"
1.02809 0.10000 0.00000 
1.02809 0.10000 -0.00000 
1.02809 0.10000 -0.00000 
1.02807 0.10000 -0.00000 
1.02807 0.10000 -0.00000 
1.02804 0.10000 -0.00001 
1.02803 0.10000 -0.00001 
1.02799 0.10000 -0.00001 
1.02799 0.10000 -0.00001 
1.02793 0.10000 -0.00002 
1.02793 0.10000 -0.00002 
1.02786 0.10000 -0.00003 
1.02786 0.10000 -0.00003 
1.02778 0.10000 -0.00004 
1.02777 0.10000 -0.00004 
1.02768 0.10000 -0.00005 
1.02767 0.10000 -0.00005 
1.02756 0.10000 -0.00007 
1.02756 0.10000 -0.00007 
1.02743 0.10000 -0.00008 
1.02743 0.10000 -0.00009 
1.02729 0.10000 -0.00010 
1.02728 0.10000 -0.00010 
1.02713 0.10000 -0.00012 
1.02712 0.10000 -0.00013 
1.02695 0.10000 -0.00015 
1.02694 0.10000 -0.00015 
1.02676 0.10000 -0.00017 
1.02675 0.10000 -0.00017 
1.02655 0.10000 -0.00020 
1.02654 0.10000 -0.00020 
1.02632 0.10000 -0.00023 
1.02631 0.10000 -0.00023 
1.02608 0.10000 -0.00026 
1.02606 0.10000 -0.00026 
1.02581 0.10000 -0.00029 
1.02579 0.10000 -0.00030 
1.02552 0.10000 -0.00033 
1.02550 0.10000 -0.00033 
1.02521 0.10000 -0.00037 
1.02519 0.10000 -0.00037 
1.02488 0.10000 -0.00041 
1.02486 0.10000 -0.00042 
1.02452 0.10000 -0.00046 
1.02450 0.10000 -0.00046 
1.02414 0.10000 -0.00051 
1.02412 0.10000 -0.00051 
1.02373 0.10000 -0.00056 
1.02371 0.10000 -0.00056 
1.02329 0.10000 -0.00062 
1.02327 0.10000 -0.00062 
1.02283 0.10000 -0.00068 
1.02280 0.10000 -0.00068 
1.02233 0.10000 -0.00074 
1.02230 0.10000 -0.00074 
1.02180 0.10000 -0.00081 
1.02177 0.10000 -0.00081 
1.02123 0.10000 -0.00088 
1.02120 0.10000 -0.00088 
1.02062 0.10000 -0.00096 
1.02059 0.10000 -0.00096 
1.01998 0.10000 -0.00104 
1.01994 0.10000 -0.00104 
1.01929 0.10000 -0.00112 
1.01925 0.10000 -0.00113 
1.01856 0.10000 -0.00122 
1.01852 0.10000 -0.00122 
1.01778 0.10000 -0.00132 
1.01773 0.10000 -0.00132 
1.01694 0.10000 -0.00142 
1.01690 0.10000 -0.00143 
1.01606 0.10000 -0.00153 
1.01601 0.10000 -0.00154 
1.01511 0.10000 -0.00165 
1.01506 0.10000 -0.00166 
1.01410 0.10000 -0.00178 
1.01405 0.10000 -0.00178 
1.01303 0.10000 -0.00191 
1.01297 0.10000 -0.00192 
1.01189 0.10000 -0.00205 
1.01183 0.10000 -0.00206 
1.01067 0.10000 -0.00220 
1.01060 0.10000 -0.00221 
1.00937 0.10000 -0.00237 
1.00930 0.10000 -0.00237 
1.00798 0.10000 -0.00254 
1.00791 0.10000 -0.00255 
1.00651 0.10000 -0.00272 
1.00643 0.10000 -0.00273 
1.00493 0.10000 -0.00291 
1.00485 0.10000 -0.00292 
1.00326 0.10000 -0.00312 
1.00317 0.10000 -0.00313 
1.00147 0.10000 -0.00334 
1.00137 0.10000 -0.00335 
0.99956 0.10000 -0.00357 
0.99946 0.10000 -0.00359 
0.99752 0.10000 -0.00382 
0.99742 0.10000 -0.00384 
0.99536 0.10000 -0.00409 
0.99524 0.10000 -0.00410 
0.99304 0.10000 -0.00437 
0.99292 0.10000 -0.00439 
0.99057 0.10000 -0.00468 
0.99044 0.10000 -0.00469 
0.98794 0.10000 -0.00500 
0.98780 0.10000 -0.00502 
0.98514 0.10000 -0.00534 
0.98499 0.10000 -0.00536 
0.98214 0.10000 -0.00571 
0.98198 0.10000 -0.00573 
0.97895 0.10000 -0.00611 
0.97878 0.10000 -0.00613 
0.97555 0.10000 -0.00653 
0.97537 0.10000 -0.00655 
0.97193 0.10000 -0.00698 
0.97174 0.10000 -0.00700 
0.96807 0.10000 -0.00745 
0.96786 0.10000 -0.00748 
0.96396 0.10000 -0.00796 
0.96373 0.10000 -0.00799 
0.95958 0.10000 -0.00850 
0.95934 0.10000 -0.00853 
0.95491 0.10000 -0.00907 
0.95466 0.10000 -0.00910 
0.94995 0.10000 -0.00968 
0.94969 0.10000 -0.00971 
0.94468 0.10000 -0.01032 
0.94439 0.10000 -0.01035 
0.93907 0.10000 -0.01100 
0.93877 0.10000 -0.01103 
0.93311 0.10000 -0.01171 
0.93279 0.10000 -0.01175 
0.92678 0.10000 -0.01246 
0.92644 0.10000 -0.01250 
0.92007 0.10000 -0.01324 
0.91971 0.10000 -0.01329 
0.91296 0.10000 -0.01407 
0.91258 0.10000 -0.01411 
0.90542 0.10000 -0.01493 
0.90502 0.10000 -0.01497 
0.89745 0.10000 -0.01582 
0.89703 0.10000 -0.01587 
0.88903 0.10000 -0.01675 
0.88858 0.10000 -0.01680 
0.88014 0.10000 -0.01772 
0.87966 0.10000 -0.01777 
0.87076 0.10000 -0.01872 
0.87026 0.10000 -0.01878 
0.86088 0.10000 -0.01976 
0.86035 0.10000 -0.01981 
0.85050 0.10000 -0.02082 
0.84994 0.10000 -0.02088 
0.83960 0.10000 -0.02192 
0.83901 0.10000 -0.02198 
0.82817 0.10000 -0.02305 
0.82755 0.10000 -0.02311 
0.81621 0.10000 -0.02421 
0.81556 0.10000 -0.02428 
0.80371 0.10000 -0.02540 
0.80304 0.10000 -0.02547 
0.79068 0.10000 -0.02662 
0.78998 0.10000 -0.02669 
0.77713 0.10000 -0.02787 
0.77640 0.10000 -0.02793 
0.76305 0.10000 -0.02913 
0.76230 0.10000 -0.02920 
0.74847 0.10000 -0.03042 
0.74768 0.10000 -0.03049 
0.73339 0.10000 -0.03172 
0.73258 0.10000 -0.03179 
0.71784 0.10000 -0.03303 
0.71701 0.10000 -0.03310 
0.70185 0.10000 -0.03435 
0.70099 0.10000 -0.03442 
0.68543 0.10000 -0.03566 
0.68455 0.10000 -0.03573 
0.66864 0.10000 -0.03695 
0.66774 0.10000 -0.03702 
0.65150 0.10000 -0.03822 
0.65058 0.10000 -0.03829 
0.63405 0.10000 -0.03945 
0.63311 0.10000 -0.03952 
0.61634 0.10000 -0.04063 
0.61539 0.10000 -0.04069 
0.59842 0.10000 -0.04174 
0.59746 0.10000 -0.04180 
0.58034 0.10000 -0.04277 
0.57937 0.10000 -0.04283 
0.56214 0.10000 -0.04371 
0.56117 0.10000 -0.04376 
0.54389 0.10000 -0.04455 
0.54291 0.10000 -0.04460 
0.52564 0.10000 -0.04528 
0.52466 0.10000 -0.04532 
0.50743 0.10000 -0.04590 
0.50646 0.10000 -0.04593 
0.48933 0.10000 -0.04639 
0.48837 0.10000 -0.04642 
0.47139 0.10000 -0.04677 
0.47043 0.10000 -0.04679 
0.45366 0.10000 -0.04703 
0.45271 0.10000 -0.04704 
0.43618 0.10000 -0.04718 
0.43525 0.10000 -0.04718 
0.41901 0.10000 -0.04722 
0.41809 0.10000 -0.04722 
0.40217 0.10000 -0.04716 
0.40127 0.10000 -0.04715 
0.38572 0.10000 -0.04701 
0.38484 0.10000 -0.04700 
0.36968 0.10000 -0.04678 
0.36882 0.10000 -0.04676 
0.35408 0.10000 -0.04647 
0.35325 0.10000 -0.04646 
0.33895 0.10000 -0.04611 
0.33814 0.10000 -0.04609 
0.32431 0.10000 -0.04568 
0.32353 0.10000 -0.04566 
0.31018 0.10000 -0.04521 
0.30943 0.10000 -0.04519 
0.29657 0.10000 -0.04470 
0.29584 0.10000 -0.04467 
0.28348 0.10000 -0.04416 
0.28278 0.10000 -0.04413 
0.27093 0.10000 -0.04358 
0.27026 0.10000 -0.04355 
0.25891 0.10000 -0.04298 
0.25827 0.10000 -0.04294 
0.24743 0.10000 -0.04235 
0.24681 0.10000 -0.04232 
0.23647 0.10000 -0.04171 
0.23588 0.10000 -0.04168 
0.22603 0.10000 -0.04105 
0.22547 0.10000 -0.04102 
0.21610 0.10000 -0.04038 
0.21557 0.10000 -0.04035 
0.20667 0.10000 -0.03970 
0.20617 0.10000 -0.03967 
0.19772 0.10000 -0.03902 
0.19725 0.10000 -0.03898 
0.18925 0.10000 -0.03833 
0.18880 0.10000 -0.03829 
0.18123 0.10000 -0.03764 
0.18081 0.10000 -0.03760 
0.17365 0.10000 -0.03694 
0.17325 0.10000 -0.03691 
0.16650 0.10000 -0.03626 
0.16611 0.10000 -0.03622 
0.15974 0.10000 -0.03557 
0.15938 0.10000 -0.03553 
0.15338 0.10000 -0.03489 
0.15304 0.10000 -0.03486 
0.14738 0.10000 -0.03422 
0.14706 0.10000 -0.03419 
0.14174 0.10000 -0.03357 
0.14143 0.10000 -0.03353 
0.13642 0.10000 -0.03292 
0.13614 0.10000 -0.03289 
0.13143 0.10000 -0.03229 
0.13116 0.10000 -0.03225 
0.12674 0.10000 -0.03167 
0.12649 0.10000 -0.03164 
0.12213 0.10000 -0.03218 
0.12186 0.10000 -0.03229 
0.11744 0.10000 -0.03459 
0.11714 0.10000 -0.03472 
0.11332 0.10000 -0.03512 
0.11305 0.10000 -0.03509 
0.10963 0.10000 -0.03465 
0.10937 0.10000 -0.03462 
0.10615 0.10000 -0.03422 
0.10591 0.10000 -0.03419 
0.10287 0.10000 -0.03384 
0.10265 0.10000 -0.03381 
0.09978 0.10000 -0.03351 
0.09956 0.10000 -0.03348 
0.09685 0.10000 -0.03321 
0.09664 0.10000 -0.03319 
0.09407 0.10000 -0.03295 
0.09387 0.10000 -0.03292 
0.09143 0.10000 -0.03269 
0.09123 0.10000 -0.03267 
0.08891 0.10000 -0.03241 
0.08871 0.10000 -0.03239 
0.08651 0.10000 -0.03211 
0.08632 0.10000 -0.03208 
0.08424 0.10000 -0.03176 
0.08404 0.10000 -0.03172 
0.08207 0.10000 -0.03134 
0.08188 0.10000 -0.03130 
0.08003 0.10000 -0.03084 
0.07985 0.10000 -0.03080 
0.07812 0.10000 -0.03026 
0.07794 0.10000 -0.03020 
0.07632 0.10000 -0.02960 
0.07615 0.10000 -0.02953 
0.07466 0.10000 -0.02885 
0.07450 0.10000 -0.02877 
0.07313 0.10000 -0.02802 
0.07297 0.10000 -0.02794 
0.07172 0.10000 -0.02713 
0.07158 0.10000 -0.02704 
0.07045 0.10000 -0.02619 
0.07032 0.10000 -0.02610 
0.06929 0.10000 -0.02523 
0.06917 0.10000 -0.02513 
0.06824 0.10000 -0.02424 
0.06814 0.10000 -0.02414 
0.06731 0.10000 -0.02322 
0.06722 0.10000 -0.02312 
0.06648 0.10000 -0.02221 
0.06639 0.10000 -0.02212 
0.06571 0.10000 -0.02123 
0.06564 0.10000 -0.02114 
0.06501 0.10000 -0.02029 
0.06494 0.10000 -0.02020 
0.06438 0.10000 -0.01935 
0.06432 0.10000 -0.01926 
0.06382 0.10000 -0.01843 
0.06377 0.10000 -0.01835 
0.06330 0.10000 -0.01755 
0.06326 0.10000 -0.01747 
0.06284 0.10000 -0.01670 
0.06280 0.10000 -0.01662 
0.06242 0.10000 -0.01587 
0.06239 0.10000 -0.01580 
0.06202 0.10000 -0.01508 
0.06199 0.10000 -0.01502 
0.06165 0.10000 -0.01433 
0.06162 0.10000 -0.01427 
0.06130 0.10000 -0.01360 
0.06127 0.10000 -0.01355 
0.06097 0.10000 -0.01290 
0.06095 0.10000 -0.01285 
0.06067 0.10000 -0.01223 
0.06064 0.10000 -0.01218 
0.06038 0.10000 -0.01158 
0.06036 0.10000 -0.01153 
0.06011 0.10000 -0.01095 
0.06009 0.10000 -0.01090 
0.05986 0.10000 -0.01034 
0.05984 0.10000 -0.01030 
0.05961 0.10000 -0.00975 
0.05959 0.10000 -0.00971 
0.05937 0.10000 -0.00919 
0.05936 0.10000 -0.00915 
0.05916 0.10000 -0.00863 
0.05914 0.10000 -0.00859 
0.05895 0.10000 -0.00809 
0.05894 0.10000 -0.00805 
0.05875 0.10000 -0.00756 
0.05874 0.10000 -0.00753 
0.05857 0.10000 -0.00704 
0.05855 0.10000 -0.00701 
0.05839 0.10000 -0.00654 
0.05838 0.10000 -0.00650 
0.05823 0.10000 -0.00604 
0.05822 0.10000 -0.00601 
0.05808 0.10000 -0.00555 
0.05807 0.10000 -0.00552 
0.05794 0.10000 -0.00507 
0.05793 0.10000 -0.00504 
0.05780 0.10000 -0.00459 
0.05779 0.10000 -0.00456 
0.05768 0.10000 -0.00413 
0.05767 0.10000 -0.00410 
0.05756 0.10000 -0.00368 
0.05755 0.10000 -0.00366 
0.05745 0.10000 -0.00320 
0.05745 0.10000 -0.00317 
0.05736 0.10000 -0.00271 
0.05735 0.10000 -0.00268 
0.05728 0.10000 -0.00229 
0.05727 0.10000 -0.00227 
0.05720 0.10000 -0.00191 
0.05719 0.10000 -0.00188 
0.05712 0.10000 -0.00132 
0.05712 0.10000 -0.00128 
0.05705 0.10000 -0.00066 
0.05704 0.10000 -0.00062 
0.05699 0.10000 -0.00020 
0.05699 0.10000 -0.00018 
0.05697 0.10000 -0.00001 
0.05697 0.10000 0.00000 
0.05697 0.10000 0.00001 
0.05695 0.10000 0.00018 
0.05694 0.10000 0.00021 
0.05690 0.10000 0.00063 
0.05685 0.10000 0.00125 
0.05685 0.10000 0.00130 
0.05681 0.10000 0.00188 
0.05680 0.10000 0.00192 
0.05678 0.10000 0.00230 
0.05678 0.10000 0.00233 
0.05675 0.10000 0.00273 
0.05675 0.10000 0.00276 
0.05670 0.10000 0.00325 
0.05669 0.10000 0.00329 
0.05666 0.10000 0.00378 
0.05666 0.10000 0.00382 
0.05664 0.10000 0.00428 
0.05664 0.10000 0.00432 
0.05661 0.10000 0.00479 
0.05660 0.10000 0.00483 
0.05655 0.10000 0.00533 
0.05655 0.10000 0.00538 
0.05650 0.10000 0.00591 
0.05650 0.10000 0.00595 
0.05647 0.10000 0.00649 
0.05647 0.10000 0.00654 
0.05641 0.10000 0.00709 
0.05640 0.10000 0.00714 
0.05634 0.10000 0.00772 
0.05634 0.10000 0.00778 
0.05630 0.10000 0.00837 
0.05630 0.10000 0.00843 
0.05627 0.10000 0.00905 
0.05627 0.10000 0.00912 
0.05623 0.10000 0.00976 
0.05622 0.10000 0.00983 
0.05618 0.10000 0.01050 
0.05618 0.10000 0.01058 
0.05615 0.10000 0.01128 
0.05615 0.10000 0.01136 
0.05611 0.10000 0.01209 
0.05611 0.10000 0.01218 
0.05608 0.10000 0.01295 
0.05608 0.10000 0.01305 
0.05607 0.10000 0.01384 
0.05607 0.10000 0.01396 
0.05609 0.10000 0.01478 
0.05609 0.10000 0.01490 
0.05610 0.10000 0.01577 
0.05610 0.10000 0.01590 
0.05616 0.10000 0.01679 
0.05618 0.10000 0.01693 
0.05630 0.10000 0.01783 
0.05632 0.10000 0.01798 
0.05645 0.10000 0.01893 
0.05648 0.10000 0.01909 
0.05662 0.10000 0.02009 
0.05665 0.10000 0.02027 
0.05683 0.10000 0.02130 
0.05687 0.10000 0.02150 
0.05711 0.10000 0.02255 
0.05716 0.10000 0.02276 
0.05747 0.10000 0.02384 
0.05754 0.10000 0.02406 
0.05793 0.10000 0.02516 
0.05801 0.10000 0.02539 
0.05849 0.10000 0.02649 
0.05860 0.10000 0.02672 
0.05918 0.10000 0.02782 
0.05931 0.10000 0.02805 
0.05997 0.10000 0.02916 
0.06012 0.10000 0.02939 
0.06089 0.10000 0.03050 
0.06105 0.10000 0.03074 
0.06194 0.10000 0.03182 
0.06213 0.10000 0.03206 
0.06316 0.10000 0.03308 
0.06338 0.10000 0.03330 
0.06457 0.10000 0.03425 
0.06482 0.10000 0.03444 
0.06616 0.10000 0.03529 
0.06643 0.10000 0.03547 
0.06792 0.10000 0.03620 
0.06821 0.10000 0.03635 
0.06984 0.10000 0.03697 
0.07014 0.10000 0.03709 
0.07192 0.10000 0.03758 
0.07222 0.10000 0.03768 
0.07557 0.10000 0.03489 
0.07587 0.10000 0.03486 
0.08059 0.10000 0.02850 
0.08091 0.10000 0.02818 
0.08415 0.10000 0.02488 
0.08437 0.10000 0.02462 
0.08618 0.10000 0.02510 
0.08637 0.10000 0.02492 
0.08830 0.10000 0.02540 
0.08841 0.10000 0.02541 
0.09047 0.10000 0.02588 
0.09059 0.10000 0.02590 
0.09278 0.10000 0.02636 
0.09291 0.10000 0.02638 
0.09525 0.10000 0.02683 
0.09538 0.10000 0.02686 
0.09788 0.10000 0.02731 
0.09803 0.10000 0.02733 
0.10069 0.10000 0.02779 
0.10084 0.10000 0.02781 
0.10368 0.10000 0.02828 
0.10384 0.10000 0.02831 
0.10687 0.10000 0.02879 
0.10704 0.10000 0.02882 
0.11027 0.10000 0.02931 
0.11045 0.10000 0.02934 
0.11390 0.10000 0.02986 
0.11409 0.10000 0.02989 
0.11776 0.10000 0.03042 
0.11796 0.10000 0.03045 
0.12187 0.10000 0.03101 
0.12209 0.10000 0.03104 
0.12625 0.10000 0.03161 
0.12649 0.10000 0.03164 
0.13091 0.10000 0.03222 
0.13116 0.10000 0.03225 
0.13587 0.10000 0.03285 
0.13614 0.10000 0.03289 
0.14115 0.10000 0.03350 
0.14143 0.10000 0.03353 
0.14676 0.10000 0.03415 
0.14706 0.10000 0.03419 
0.15272 0.10000 0.03482 
0.15304 0.10000 0.03486 
0.15904 0.10000 0.03550 
0.15938 0.10000 0.03553 
0.16575 0.10000 0.03618 
0.16611 0.10000 0.03622 
0.17287 0.10000 0.03687 
0.17325 0.10000 0.03691 
0.18040 0.10000 0.03756 
0.18081 0.10000 0.03760 
0.18837 0.10000 0.03825 
0.18880 0.10000 0.03829 
0.19680 0.10000 0.03894 
0.19725 0.10000 0.03898 
0.20569 0.10000 0.03963 
0.20617 0.10000 0.03967 
0.21507 0.10000 0.04031 
0.21557 0.10000 0.04035 
0.22494 0.10000 0.04098 
0.22547 0.10000 0.04102 
0.23533 0.10000 0.04164 
0.23588 0.10000 0.04168 
0.24623 0.10000 0.04228 
0.24681 0.10000 0.04232 
0.25766 0.10000 0.04291 
0.25827 0.10000 0.04294 
0.26962 0.10000 0.04351 
0.27026 0.10000 0.04355 
0.28211 0.10000 0.04409 
0.28278 0.10000 0.04413 
0.29514 0.10000 0.04464 
0.29584 0.10000 0.04467 
0.30870 0.10000 0.04516 
0.30943 0.10000 0.04519 
0.32278 0.10000 0.04564 
0.32353 0.10000 0.04566 
0.33736 0.10000 0.04606 
0.33814 0.10000 0.04609 
0.35244 0.10000 0.04644 
0.35325 0.10000 0.04646 
0.36799 0.10000 0.04675 
0.36882 0.10000 0.04676 
0.38398 0.10000 0.04699 
0.38484 0.10000 0.04700 
0.40039 0.10000 0.04715 
0.40127 0.10000 0.04715 
0.41719 0.10000 0.04721 
0.41809 0.10000 0.04722 
0.43433 0.10000 0.04719 
0.43525 0.10000 0.04718 
0.45178 0.10000 0.04705 
0.45271 0.10000 0.04704 
0.46949 0.10000 0.04680 
0.47043 0.10000 0.04679 
0.48741 0.10000 0.04644 
0.48837 0.10000 0.04642 
0.50549 0.10000 0.04596 
0.50646 0.10000 0.04593 
0.52368 0.10000 0.04535 
0.52466 0.10000 0.04532 
0.54194 0.10000 0.04464 
0.54291 0.10000 0.04460 
0.56019 0.10000 0.04381 
0.56117 0.10000 0.04376 
0.57839 0.10000 0.04288 
0.57937 0.10000 0.04283 
0.59649 0.10000 0.04185 
0.59746 0.10000 0.04180 
0.61443 0.10000 0.04075 
0.61539 0.10000 0.04069 
0.63217 0.10000 0.03958 
0.63311 0.10000 0.03952 
0.64964 0.10000 0.03836 
0.65058 0.10000 0.03829 
0.66682 0.10000 0.03709 
0.66774 0.10000 0.03702 
0.68366 0.10000 0.03580 
0.68455 0.10000 0.03573 
0.70011 0.10000 0.03449 
0.70099 0.10000 0.03442 
0.71615 0.10000 0.03317 
0.71701 0.10000 0.03310 
0.73175 0.10000 0.03186 
0.73258 0.10000 0.03179 
0.74688 0.10000 0.03056 
0.74768 0.10000 0.03049 
0.76151 0.10000 0.02927 
0.76230 0.10000 0.02920 
0.77565 0.10000 0.02800 
0.77640 0.10000 0.02793 
0.78926 0.10000 0.02675 
0.78998 0.10000 0.02669 
0.80234 0.10000 0.02553 
0.80304 0.10000 0.02547 
0.81489 0.10000 0.02434 
0.81556 0.10000 0.02428 
0.82691 0.10000 0.02318 
0.82755 0.10000 0.02311 
0.83840 0.10000 0.02204 
0.83901 0.10000 0.02198 
0.84936 0.10000 0.02094 
0.84994 0.10000 0.02088 
0.85980 0.10000 0.01987 
0.86035 0.10000 0.01981 
0.86973 0.10000 0.01883 
0.87026 0.10000 0.01878 
0.87916 0.10000 0.01783 
0.87966 0.10000 0.01777 
0.88810 0.10000 0.01686 
0.88858 0.10000 0.01680 
0.89657 0.10000 0.01592 
0.89703 0.10000 0.01587 
0.90459 0.10000 0.01502 
0.90502 0.10000 0.01497 
0.91217 0.10000 0.01416 
0.91258 0.10000 0.01411 
0.91933 0.10000 0.01333 
0.91971 0.10000 0.01329 
0.92608 0.10000 0.01254 
0.92644 0.10000 0.01250 
0.93245 0.10000 0.01179 
0.93279 0.10000 0.01175 
0.93845 0.10000 0.01107 
0.93877 0.10000 0.01103 
0.94409 0.10000 0.01039 
0.94439 0.10000 0.01035 
0.94940 0.10000 0.00975 
0.94969 0.10000 0.00971 
0.95440 0.10000 0.00914 
0.95466 0.10000 0.00910 
0.95909 0.10000 0.00856 
0.95934 0.10000 0.00853 
0.96350 0.10000 0.00802 
0.96373 0.10000 0.00799 
0.96764 0.10000 0.00751 
0.96786 0.10000 0.00748 
0.97153 0.10000 0.00703 
0.97174 0.10000 0.00700 
0.97518 0.10000 0.00657 
0.97537 0.10000 0.00655 
0.97860 0.10000 0.00615 
0.97878 0.10000 0.00613 
0.98181 0.10000 0.00575 
0.98198 0.10000 0.00573 
0.98482 0.10000 0.00538 
0.98499 0.10000 0.00536 
0.98765 0.10000 0.00503 
0.98780 0.10000 0.00502 
0.99030 0.10000 0.00471 
0.99044 0.10000 0.00469 
0.99278 0.10000 0.00440 
0.99292 0.10000 0.00439 
0.99511 0.10000 0.00412 
0.99524 0.10000 0.00410 
0.99730 0.10000 0.00385 
0.99742 0.10000 0.00384 
0.99935 0.10000 0.00360 
0.99946 0.10000 0.00359 
1.00127 0.10000 0.00336 
1.00137 0.10000 0.00335 
1.00307 0.10000 0.00314 
1.00317 0.10000 0.00313 
1.00476 0.10000 0.00293 
1.00485 0.10000 0.00292 
1.00634 0.10000 0.00274 
1.00643 0.10000 0.00273 
1.00783 0.10000 0.00256 
1.00791 0.10000 0.00255 
1.00923 0.10000 0.00238 
1.00930 0.10000 0.00237 
1.01053 0.10000 0.00222 
1.01060 0.10000 0.00221 
1.01176 0.10000 0.00207 
1.01183 0.10000 0.00206 
1.01291 0.10000 0.00192 
1.01297 0.10000 0.00192 
1.01399 0.10000 0.00179 
1.01405 0.10000 0.00178 
1.01501 0.10000 0.00166 
1.01506 0.10000 0.00166 
1.01596 0.10000 0.00154 
1.01601 0.10000 0.00154 
1.01685 0.10000 0.00143 
1.01690 0.10000 0.00143 
1.01769 0.10000 0.00133 
1.01773 0.10000 0.00132 
1.01848 0.10000 0.00123 
1.01852 0.10000 0.00122 
1.01921 0.10000 0.00113 
1.01925 0.10000 0.00113 
1.01991 0.10000 0.00105 
1.01994 0.10000 0.00104 
1.02056 0.10000 0.00096 
1.02059 0.10000 0.00096 
1.02117 0.10000 0.00089 
1.02120 0.10000 0.00088 
1.02174 0.10000 0.00081 
1.02177 0.10000 0.00081 
1.02227 0.10000 0.00075 
1.02230 0.10000 0.00074 
1.02278 0.10000 0.00068 
1.02280 0.10000 0.00068 
1.02325 0.10000 0.00062 
1.02327 0.10000 0.00062 
1.02368 0.10000 0.00057 
1.02371 0.10000 0.00056 
1.02410 0.10000 0.00051 
1.02412 0.10000 0.00051 
1.02448 0.10000 0.00046 
1.02450 0.10000 0.00046 
1.02484 0.10000 0.00042 
1.02486 0.10000 0.00042 
1.02518 0.10000 0.00037 
1.02519 0.10000 0.00037 
1.02549 0.10000 0.00033 
1.02550 0.10000 0.00033 
1.02578 0.10000 0.00030 
1.02579 0.10000 0.00030 
1.02605 0.10000 0.00026 
1.02606 0.10000 0.00026 
1.02630 0.10000 0.00023 
1.02631 0.10000 0.00023 
1.02653 0.10000 0.00020 
1.02654 0.10000 0.00020 
1.02674 0.10000 0.00017 
1.02675 0.10000 0.00017 
1.02693 0.10000 0.00015 
1.02694 0.10000 0.00015 
1.02711 0.10000 0.00013 
1.02712 0.10000 0.00013 
1.02727 0.10000 0.00011 
1.02728 0.10000 0.00010 
1.02742 0.10000 0.00009 
1.02743 0.10000 0.00009 
1.02755 0.10000 0.00007 
1.02756 0.10000 0.00007 
1.02766 0.10000 0.00006 
1.02767 0.10000 0.00005 
1.02777 0.10000 0.00004 
1.02777 0.10000 0.00004 
1.02785 0.10000 0.00003 
1.02786 0.10000 0.00003 
1.02793 0.10000 0.00002 
1.02793 0.10000 0.00002 
1.02799 0.10000 0.00001 
1.02799 0.10000 0.00001 
1.02803 0.10000 0.00001 
1.02803 0.10000 0.00001 
1.02807 0.10000 0.00000 
1.02807 0.10000 0.00000 
1.02809 0.10000 0.00000 
1.02809 0.10000 0.00000 
1.02809 0.10000 0.00000 
1.02809 0.10000 0.00000 

ZONE T="SLICE_Y_0p75_BINS01_KS_1mm_SINGLE_LAYER"
1.21070 0.75000 0.00000 
1.21070 0.75000 -0.00000 
1.21069 0.75000 -0.00000 
1.21068 0.75000 -0.00000 
1.21068 0.75000 -0.00000 
1.21066 0.75000 -0.00000 
1.21065 0.75000 -0.00001 
1.21063 0.75000 -0.00001 
1.21062 0.75000 -0.00001 
1.21058 0.75000 -0.00001 
1.21057 0.75000 -0.00002 
1.21053 0.75000 -0.00002 
1.21051 0.75000 -0.00002 
1.21046 0.75000 -0.00003 
1.21044 0.75000 -0.00003 
1.21039 0.75000 -0.00004 
1.21036 0.75000 -0.00004 
1.21030 0.75000 -0.00005 
1.21027 0.75000 -0.00006 
1.21020 0.75000 -0.00006 
1.21016 0.75000 -0.00007 
1.21009 0.75000 -0.00008 
1.21005 0.75000 -0.00008 
1.20996 0.75000 -0.00009 
1.20992 0.75000 -0.00010 
1.20982 0.75000 -0.00011 
1.20978 0.75000 -0.00012 
1.20967 0.75000 -0.00013 
1.20962 0.75000 -0.00014 
1.20951 0.75000 -0.00015 
1.20945 0.75000 -0.00016 
1.20933 0.75000 -0.00018 
1.20927 0.75000 -0.00018 
1.20914 0.75000 -0.00020 
1.20907 0.75000 -0.00021 
1.20893 0.75000 -0.00023 
1.20886 0.75000 -0.00024 
1.20870 0.75000 -0.00026 
1.20862 0.75000 -0.00027 
1.20846 0.75000 -0.00029 
1.20838 0.75000 -0.00030 
1.20820 0.75000 -0.00032 
1.20811 0.75000 -0.00033 
1.20792 0.75000 -0.00036 
1.20782 0.75000 -0.00037 
1.20762 0.75000 -0.00040 
1.20751 0.75000 -0.00041 
1.20729 0.75000 -0.00044 
1.20719 0.75000 -0.00045 
1.20695 0.75000 -0.00048 
1.20683 0.75000 -0.00050 
1.20658 0.75000 -0.00053 
1.20646 0.75000 -0.00054 
1.20619 0.75000 -0.00058 
1.20606 0.75000 -0.00059 
1.20577 0.75000 -0.00063 
1.20563 0.75000 -0.00065 
1.20533 0.75000 -0.00069 
1.20517 0.75000 -0.00071 
1.20485 0.75000 -0.00075 
1.20469 0.75000 -0.00077 
1.20434 0.75000 -0.00081 
1.20417 0.75000 -0.00083 
1.20380 0.75000 -0.00088 
1.20361 0.75000 -0.00090 
1.20322 0.75000 -0.00095 
1.20303 0.75000 -0.00098 
1.20261 0.75000 -0.00103 
1.20240 0.75000 -0.00106 
1.20195 0.75000 -0.00111 
1.20173 0.75000 -0.00114 
1.20125 0.75000 -0.00120 
1.20101 0.75000 -0.00123 
1.20051 0.75000 -0.00130 
1.20025 0.75000 -0.00133 
1.19972 0.75000 -0.00140 
1.19944 0.75000 -0.00143 
1.19887 0.75000 -0.00150 
1.19858 0.75000 -0.00154 
1.19797 0.75000 -0.00161 
1.19766 0.75000 -0.00165 
1.19701 0.75000 -0.00173 
1.19668 0.75000 -0.00177 
1.19599 0.75000 -0.00186 
1.19564 0.75000 -0.00190 
1.19490 0.75000 -0.00199 
1.19452 0.75000 -0.00204 
1.19373 0.75000 -0.00214 
1.19334 0.75000 -0.00219 
1.19249 0.75000 -0.00229 
1.19207 0.75000 -0.00234 
1.19117 0.75000 -0.00245 
1.19072 0.75000 -0.00251 
1.18976 0.75000 -0.00263 
1.18928 0.75000 -0.00269 
1.18826 0.75000 -0.00281 
1.18775 0.75000 -0.00287 
1.18666 0.75000 -0.00301 
1.18611 0.75000 -0.00308 
1.18495 0.75000 -0.00322 
1.18437 0.75000 -0.00329 
1.18313 0.75000 -0.00344 
1.18251 0.75000 -0.00352 
1.18119 0.75000 -0.00368 
1.18052 0.75000 -0.00376 
1.17911 0.75000 -0.00393 
1.17841 0.75000 -0.00402 
1.17691 0.75000 -0.00420 
1.17615 0.75000 -0.00430 
1.17455 0.75000 -0.00449 
1.17374 0.75000 -0.00459 
1.17204 0.75000 -0.00480 
1.17118 0.75000 -0.00491 
1.16936 0.75000 -0.00514 
1.16845 0.75000 -0.00525 
1.16651 0.75000 -0.00549 
1.16553 0.75000 -0.00561 
1.16347 0.75000 -0.00587 
1.16243 0.75000 -0.00599 
1.16023 0.75000 -0.00627 
1.15912 0.75000 -0.00640 
1.15678 0.75000 -0.00669 
1.15560 0.75000 -0.00684 
1.15310 0.75000 -0.00714 
1.15185 0.75000 -0.00730 
1.14919 0.75000 -0.00762 
1.14786 0.75000 -0.00778 
1.14504 0.75000 -0.00813 
1.14362 0.75000 -0.00830 
1.14062 0.75000 -0.00866 
1.13911 0.75000 -0.00884 
1.13592 0.75000 -0.00922 
1.13432 0.75000 -0.00942 
1.13093 0.75000 -0.00982 
1.12923 0.75000 -0.01002 
1.12564 0.75000 -0.01044 
1.12384 0.75000 -0.01065 
1.12003 0.75000 -0.01109 
1.11812 0.75000 -0.01131 
1.11409 0.75000 -0.01177 
1.11206 0.75000 -0.01200 
1.10780 0.75000 -0.01248 
1.10565 0.75000 -0.01272 
1.10115 0.75000 -0.01322 
1.09888 0.75000 -0.01347 
1.09413 0.75000 -0.01398 
1.09174 0.75000 -0.01424 
1.08672 0.75000 -0.01478 
1.08420 0.75000 -0.01505 
1.07892 0.75000 -0.01560 
1.07626 0.75000 -0.01588 
1.07071 0.75000 -0.01645 
1.06792 0.75000 -0.01674 
1.06209 0.75000 -0.01732 
1.05916 0.75000 -0.01762 
1.05305 0.75000 -0.01822 
1.04998 0.75000 -0.01853 
1.04358 0.75000 -0.01915 
1.04037 0.75000 -0.01946 
1.03369 0.75000 -0.02009 
1.03033 0.75000 -0.02041 
1.02337 0.75000 -0.02106 
1.01987 0.75000 -0.02139 
1.01262 0.75000 -0.02205 
1.00898 0.75000 -0.02239 
1.00146 0.75000 -0.02306 
0.99767 0.75000 -0.02340 
0.98988 0.75000 -0.02409 
0.98596 0.75000 -0.02443 
0.97791 0.75000 -0.02513 
0.97386 0.75000 -0.02548 
0.96555 0.75000 -0.02618 
0.96138 0.75000 -0.02653 
0.95284 0.75000 -0.02723 
0.94854 0.75000 -0.02759 
0.93978 0.75000 -0.02828 
0.93537 0.75000 -0.02864 
0.92640 0.75000 -0.02933 
0.92189 0.75000 -0.02967 
0.91274 0.75000 -0.03035 
0.90814 0.75000 -0.03069 
0.89883 0.75000 -0.03134 
0.89414 0.75000 -0.03167 
0.88469 0.75000 -0.03230 
0.87994 0.75000 -0.03261 
0.87038 0.75000 -0.03320 
0.86556 0.75000 -0.03350 
0.85592 0.75000 -0.03405 
0.85106 0.75000 -0.03432 
0.84136 0.75000 -0.03482 
0.83648 0.75000 -0.03507 
0.82674 0.75000 -0.03552 
0.82185 0.75000 -0.03574 
0.81211 0.75000 -0.03613 
0.80722 0.75000 -0.03632 
0.79751 0.75000 -0.03665 
0.79263 0.75000 -0.03681 
0.78298 0.75000 -0.03707 
0.77813 0.75000 -0.03720 
0.76857 0.75000 -0.03740 
0.76376 0.75000 -0.03750 
0.75431 0.75000 -0.03764 
0.74955 0.75000 -0.03770 
0.74024 0.75000 -0.03778 
0.73556 0.75000 -0.03782 
0.72641 0.75000 -0.03783 
0.72180 0.75000 -0.03784 
0.71284 0.75000 -0.03781 
0.70833 0.75000 -0.03779 
0.69956 0.75000 -0.03771 
0.69516 0.75000 -0.03767 
0.68662 0.75000 -0.03754 
0.68232 0.75000 -0.03748 
0.67401 0.75000 -0.03732 
0.66984 0.75000 -0.03723 
0.66178 0.75000 -0.03704 
0.65773 0.75000 -0.03694 
0.64994 0.75000 -0.03671 
0.64602 0.75000 -0.03660 
0.63850 0.75000 -0.03634 
0.63472 0.75000 -0.03622 
0.62747 0.75000 -0.03594 
0.62383 0.75000 -0.03580 
0.61687 0.75000 -0.03551 
0.61337 0.75000 -0.03536 
0.60669 0.75000 -0.03506 
0.60333 0.75000 -0.03490 
0.59694 0.75000 -0.03458 
0.59372 0.75000 -0.03442 
0.58761 0.75000 -0.03408 
0.58454 0.75000 -0.03392 
0.57871 0.75000 -0.03357 
0.57578 0.75000 -0.03340 
0.57022 0.75000 -0.03305 
0.56743 0.75000 -0.03287 
0.56215 0.75000 -0.03252 
0.55950 0.75000 -0.03234 
0.55448 0.75000 -0.03197 
0.55196 0.75000 -0.03179 
0.54720 0.75000 -0.03143 
0.54481 0.75000 -0.03124 
0.54031 0.75000 -0.03087 
0.53804 0.75000 -0.03069 
0.53378 0.75000 -0.03032 
0.53163 0.75000 -0.03013 
0.52760 0.75000 -0.02977 
0.52558 0.75000 -0.02958 
0.52177 0.75000 -0.02921 
0.51986 0.75000 -0.02903 
0.51627 0.75000 -0.02866 
0.51446 0.75000 -0.02848 
0.51108 0.75000 -0.02812 
0.50938 0.75000 -0.02794 
0.50619 0.75000 -0.02758 
0.50459 0.75000 -0.02740 
0.50159 0.75000 -0.02705 
0.50008 0.75000 -0.02687 
0.49726 0.75000 -0.02653 
0.49584 0.75000 -0.02636 
0.49316 0.75000 -0.02618 
0.49181 0.75000 -0.02603 
0.48902 0.75000 -0.02755 
0.48755 0.75000 -0.02836 
0.48497 0.75000 -0.02972 
0.48352 0.75000 -0.03052 
0.48139 0.75000 -0.03024 
0.48017 0.75000 -0.03008 
0.47817 0.75000 -0.02982 
0.47702 0.75000 -0.02967 
0.47515 0.75000 -0.02944 
0.47406 0.75000 -0.02930 
0.47230 0.75000 -0.02909 
0.47128 0.75000 -0.02897 
0.46962 0.75000 -0.02879 
0.46865 0.75000 -0.02868 
0.46708 0.75000 -0.02853 
0.46616 0.75000 -0.02844 
0.46467 0.75000 -0.02831 
0.46379 0.75000 -0.02823 
0.46239 0.75000 -0.02811 
0.46154 0.75000 -0.02805 
0.46020 0.75000 -0.02793 
0.45939 0.75000 -0.02786 
0.45812 0.75000 -0.02774 
0.45733 0.75000 -0.02766 
0.45614 0.75000 -0.02751 
0.45537 0.75000 -0.02742 
0.45424 0.75000 -0.02723 
0.45351 0.75000 -0.02711 
0.45244 0.75000 -0.02689 
0.45174 0.75000 -0.02674 
0.45074 0.75000 -0.02647 
0.45007 0.75000 -0.02629 
0.44914 0.75000 -0.02597 
0.44850 0.75000 -0.02575 
0.44765 0.75000 -0.02539 
0.44705 0.75000 -0.02513 
0.44627 0.75000 -0.02474 
0.44570 0.75000 -0.02445 
0.44499 0.75000 -0.02402 
0.44447 0.75000 -0.02370 
0.44383 0.75000 -0.02323 
0.44336 0.75000 -0.02288 
0.44279 0.75000 -0.02238 
0.44236 0.75000 -0.02201 
0.44184 0.75000 -0.02150 
0.44146 0.75000 -0.02113 
0.44101 0.75000 -0.02060 
0.44067 0.75000 -0.02022 
0.44025 0.75000 -0.01972 
0.43994 0.75000 -0.01934 
0.43957 0.75000 -0.01883 
0.43931 0.75000 -0.01846 
0.43898 0.75000 -0.01795 
0.43874 0.75000 -0.01759 
0.43845 0.75000 -0.01709 
0.43824 0.75000 -0.01674 
0.43797 0.75000 -0.01625 
0.43778 0.75000 -0.01592 
0.43754 0.75000 -0.01545 
0.43738 0.75000 -0.01512 
0.43716 0.75000 -0.01466 
0.43701 0.75000 -0.01436 
0.43680 0.75000 -0.01393 
0.43667 0.75000 -0.01364 
0.43648 0.75000 -0.01322 
0.43637 0.75000 -0.01294 
0.43619 0.75000 -0.01254 
0.43607 0.75000 -0.01228 
0.43590 0.75000 -0.01190 
0.43579 0.75000 -0.01166 
0.43564 0.75000 -0.01128 
0.43554 0.75000 -0.01105 
0.43539 0.75000 -0.01069 
0.43530 0.75000 -0.01047 
0.43516 0.75000 -0.01012 
0.43508 0.75000 -0.00991 
0.43494 0.75000 -0.00958 
0.43485 0.75000 -0.00938 
0.43472 0.75000 -0.00906 
0.43464 0.75000 -0.00887 
0.43451 0.75000 -0.00856 
0.43444 0.75000 -0.00838 
0.43432 0.75000 -0.00807 
0.43425 0.75000 -0.00790 
0.43413 0.75000 -0.00760 
0.43406 0.75000 -0.00744 
0.43395 0.75000 -0.00715 
0.43389 0.75000 -0.00699 
0.43378 0.75000 -0.00671 
0.43372 0.75000 -0.00655 
0.43362 0.75000 -0.00627 
0.43356 0.75000 -0.00612 
0.43346 0.75000 -0.00585 
0.43341 0.75000 -0.00570 
0.43332 0.75000 -0.00544 
0.43326 0.75000 -0.00529 
0.43317 0.75000 -0.00504 
0.43313 0.75000 -0.00490 
0.43304 0.75000 -0.00464 
0.43299 0.75000 -0.00450 
0.43291 0.75000 -0.00425 
0.43287 0.75000 -0.00411 
0.43279 0.75000 -0.00386 
0.43275 0.75000 -0.00372 
0.43268 0.75000 -0.00348 
0.43264 0.75000 -0.00335 
0.43257 0.75000 -0.00312 
0.43254 0.75000 -0.00299 
0.43247 0.75000 -0.00273 
0.43243 0.75000 -0.00259 
0.43237 0.75000 -0.00234 
0.43233 0.75000 -0.00219 
0.43227 0.75000 -0.00198 
0.43224 0.75000 -0.00187 
0.43218 0.75000 -0.00166 
0.43215 0.75000 -0.00155 
0.43209 0.75000 -0.00123 
0.43206 0.75000 -0.00105 
0.43199 0.75000 -0.00071 
0.43195 0.75000 -0.00052 
0.43189 0.75000 -0.00029 
0.43186 0.75000 -0.00016 
0.43183 0.75000 -0.00006 
0.43182 0.75000 0.00000 
0.43180 0.75000 0.00006 
0.43178 0.75000 0.00016 
0.43175 0.75000 0.00029 
0.43169 0.75000 0.00053 
0.43160 0.75000 0.00087 
0.43155 0.75000 0.00107 
0.43148 0.75000 0.00141 
0.43144 0.75000 0.00161 
0.43138 0.75000 0.00184 