VARIABLES = "X" "Y" "Z" "Cp" "HTC" "Beta" "Ts" "FF" "k" "RhoIce" "HTC_CLEAN"
ZONE T="SLICE_Y_0p1_BINS01_KS_1mm_CUTDATA"
1.02809 0.10000 0.00000 0.19479 258.91327 -0.00000 268.80011 0.00000 -999.00000 -999.00000 -999.00000 
1.02809 0.10000 -0.00000 0.19479 258.91354 -0.00000 268.80011 0.00000 -999.00000 -999.00000 -999.00000 
1.02809 0.10000 -0.00000 0.19479 258.91354 -0.00000 268.80011 0.00000 -999.00000 -999.00000 -999.00000 
1.02807 0.10000 -0.00000 0.19479 258.91443 -0.00000 268.80014 0.00000 -999.00000 -999.00000 -999.00000 
1.02807 0.10000 -0.00000 0.19479 258.91446 -0.00000 268.80014 0.00000 -999.00000 -999.00000 -999.00000 
1.02804 0.10000 -0.00001 0.19479 258.91599 -0.00000 268.80014 0.00000 -999.00000 -999.00000 -999.00000 
1.02803 0.10000 -0.00001 0.19479 258.91605 -0.00000 268.80014 0.00000 -999.00000 -999.00000 -999.00000 
1.02799 0.10000 -0.00001 0.19479 258.91830 -0.00000 268.80014 0.00000 -999.00000 -999.00000 -999.00000 
1.02799 0.10000 -0.00001 0.19479 258.91840 -0.00000 268.80014 0.00000 -999.00000 -999.00000 -999.00000 
1.02793 0.10000 -0.00002 0.19479 258.92154 -0.00000 268.80014 0.00000 -999.00000 -999.00000 -999.00000 
1.02793 0.10000 -0.00002 0.19479 258.92166 -0.00000 268.80014 0.00000 -999.00000 -999.00000 -999.00000 
1.02786 0.10000 -0.00003 0.19479 258.92596 -0.00000 268.80014 0.00000 -999.00000 -999.00000 -999.00000 
1.02786 0.10000 -0.00003 0.19479 258.92615 -0.00000 268.80014 0.00000 -999.00000 -999.00000 -999.00000 
1.02778 0.10000 -0.00004 0.19479 258.93195 -0.00000 268.80017 0.00000 -999.00000 -999.00000 -999.00000 
1.02777 0.10000 -0.00004 0.19479 258.93219 -0.00000 268.80017 0.00000 -999.00000 -999.00000 -999.00000 
1.02768 0.10000 -0.00005 0.19479 258.94003 -0.00000 268.80020 0.00000 -999.00000 -999.00000 -999.00000 
1.02767 0.10000 -0.00005 0.19479 258.94034 -0.00000 268.80020 0.00000 -999.00000 -999.00000 -999.00000 
1.02756 0.10000 -0.00007 0.19480 258.95105 -0.00000 268.80023 0.00000 -999.00000 -999.00000 -999.00000 
1.02756 0.10000 -0.00007 0.19480 258.95148 -0.00000 268.80023 0.00000 -999.00000 -999.00000 -999.00000 
1.02743 0.10000 -0.00008 0.19480 258.96628 -0.00000 268.80026 0.00000 -999.00000 -999.00000 -999.00000 
1.02743 0.10000 -0.00009 0.19480 258.96689 -0.00000 268.80029 0.00000 -999.00000 -999.00000 -999.00000 
1.02729 0.10000 -0.00010 0.19481 258.98761 -0.00000 268.80099 0.00000 -999.00000 -999.00000 -999.00000 
1.02728 0.10000 -0.00010 0.19483 259.05685 -0.00000 268.80109 0.00000 -999.00000 -999.00000 -999.00000 
1.02713 0.10000 -0.00012 0.19484 259.08679 -0.00000 268.80179 0.00000 -999.00000 -999.00000 -999.00000 
1.02712 0.10000 -0.00013 0.19484 259.08688 -0.00000 268.80182 0.00000 -999.00000 -999.00000 -999.00000 
1.02695 0.10000 -0.00015 0.19485 259.13068 -0.00000 268.80231 0.00000 -999.00000 -999.00000 -999.00000 
1.02694 0.10000 -0.00015 0.19485 259.13080 -0.00000 268.80234 0.00000 -999.00000 -999.00000 -999.00000 
1.02676 0.10000 -0.00017 0.19525 261.03867 -0.00000 268.80313 0.00000 -999.00000 -999.00000 -999.00000 
1.02675 0.10000 -0.00017 0.19525 261.03888 -0.00000 268.80313 0.00000 -999.00000 -999.00000 -999.00000 
1.02655 0.10000 -0.00020 0.19525 261.06296 -0.00000 268.80304 0.00000 -999.00000 -999.00000 -999.00000 
1.02654 0.10000 -0.00020 0.19523 261.00464 -0.00000 268.80301 0.00000 -999.00000 -999.00000 -999.00000 
1.02632 0.10000 -0.00023 0.19522 261.05502 -0.00000 268.80298 0.00000 -999.00000 -999.00000 -999.00000 
1.02631 0.10000 -0.00023 0.19523 261.06696 -0.00000 268.80298 0.00000 -999.00000 -999.00000 -999.00000 
1.02608 0.10000 -0.00026 0.19521 261.16354 -0.00000 268.80325 0.00000 -999.00000 -999.00000 -999.00000 
1.02606 0.10000 -0.00026 0.19522 261.18265 -0.00000 268.80328 0.00000 -999.00000 -999.00000 -999.00000 
1.02581 0.10000 -0.00029 0.19521 261.80966 -0.00000 268.80344 0.00000 -999.00000 -999.00000 -999.00000 
1.02579 0.10000 -0.00030 0.19522 261.87732 -0.00000 268.80350 0.00000 -999.00000 -999.00000 -999.00000 
1.02552 0.10000 -0.00033 0.19521 261.71136 -0.00000 268.80368 0.00000 -999.00000 -999.00000 -999.00000 
1.02550 0.10000 -0.00033 0.19521 261.79318 -0.00000 268.80371 0.00000 -999.00000 -999.00000 -999.00000 
1.02521 0.10000 -0.00037 0.19534 266.66089 0.00000 268.80316 0.00000 -999.00000 -999.00000 -999.00000 
1.02519 0.10000 -0.00037 0.19534 266.82526 0.00000 268.80307 0.00000 -999.00000 -999.00000 -999.00000 
1.02488 0.10000 -0.00041 0.19485 270.14264 0.00000 268.80005 0.00000 -999.00000 -999.00000 -999.00000 
1.02486 0.10000 -0.00042 0.19482 270.29092 0.00000 268.79980 0.00000 -999.00000 -999.00000 -999.00000 
1.02452 0.10000 -0.00046 0.19437 272.73520 -0.00000 268.79358 0.00000 -999.00000 -999.00000 -999.00000 
1.02450 0.10000 -0.00046 0.19432 272.84900 -0.00000 268.79315 0.00000 -999.00000 -999.00000 -999.00000 
1.02414 0.10000 -0.00051 0.19255 277.19659 -0.00000 268.78265 0.00000 -999.00000 -999.00000 -999.00000 
1.02412 0.10000 -0.00051 0.19248 277.34756 -0.00000 268.78198 0.00000 -999.00000 -999.00000 -999.00000 
1.02373 0.10000 -0.00056 0.19142 279.11044 -0.00000 268.76923 0.00000 -999.00000 -999.00000 -999.00000 
1.02371 0.10000 -0.00056 0.19131 279.25543 -0.00000 268.76843 0.00000 -999.00000 -999.00000 -999.00000 
1.02329 0.10000 -0.00062 0.18938 282.20459 -0.00000 268.75177 0.00000 -999.00000 -999.00000 -999.00000 
1.02327 0.10000 -0.00062 0.18926 282.32846 -0.00000 268.75079 0.00000 -999.00000 -999.00000 -999.00000 
1.02283 0.10000 -0.00068 0.18613 285.89508 -0.00000 268.72836 0.00000 -999.00000 -999.00000 -999.00000 
1.02280 0.10000 -0.00068 0.18600 286.02075 -0.00000 268.72711 0.00000 -999.00000 -999.00000 -999.00000 
1.02233 0.10000 -0.00074 0.18265 289.12952 0.00000 268.70120 0.00000 -999.00000 -999.00000 -999.00000 
1.02230 0.10000 -0.00074 0.18248 289.27155 0.00000 268.69974 0.00000 -999.00000 -999.00000 -999.00000 
1.02180 0.10000 -0.00081 0.17934 291.83160 -0.00000 268.66980 0.00000 -999.00000 -999.00000 -999.00000 
1.02177 0.10000 -0.00081 0.17916 291.96701 -0.00000 268.66824 0.00000 -999.00000 -999.00000 -999.00000 
1.02123 0.10000 -0.00088 0.17504 295.04214 -0.00000 268.63889 0.00000 -999.00000 -999.00000 -999.00000 
1.02120 0.10000 -0.00088 0.17486 295.17224 -0.00000 268.63727 0.00000 -999.00000 -999.00000 -999.00000 
1.02062 0.10000 -0.00096 0.17166 297.52951 -0.00000 268.61087 0.00000 -999.00000 -999.00000 -999.00000 
1.02059 0.10000 -0.00096 0.17146 297.67987 -0.00000 268.60925 0.00000 -999.00000 -999.00000 -999.00000 
1.01998 0.10000 -0.00104 0.16859 299.82001 -0.00000 268.58310 0.00000 -999.00000 -999.00000 -999.00000 
1.01994 0.10000 -0.00104 0.16842 299.95242 -0.00000 268.58160 0.00000 -999.00000 -999.00000 -999.00000 
1.01929 0.10000 -0.00112 0.16560 302.00931 -0.00000 268.55862 0.00000 -999.00000 -999.00000 -999.00000 
1.01925 0.10000 -0.00113 0.16545 302.11929 -0.00000 268.55734 0.00000 -999.00000 -999.00000 -999.00000 
1.01856 0.10000 -0.00122 0.16306 303.80423 -0.00000 268.53601 0.00000 -999.00000 -999.00000 -999.00000 
1.01852 0.10000 -0.00122 0.16292 303.90427 -0.00000 268.53482 0.00000 -999.00000 -999.00000 -999.00000 
1.01778 0.10000 -0.00132 0.16061 305.50201 -0.00000 268.51242 0.00000 -999.00000 -999.00000 -999.00000 
1.01773 0.10000 -0.00132 0.16045 305.61774 -0.00000 268.51108 0.00000 -999.00000 -999.00000 -999.00000 
1.01694 0.10000 -0.00142 0.15689 308.07379 -0.00000 268.48401 0.00000 -999.00000 -999.00000 -999.00000 
1.01690 0.10000 -0.00143 0.15673 308.18979 -0.00000 268.48257 0.00000 -999.00000 -999.00000 -999.00000 
1.01606 0.10000 -0.00153 0.15315 310.62292 -0.00000 268.45563 0.00000 -999.00000 -999.00000 -999.00000 
1.01601 0.10000 -0.00154 0.15303 310.70605 -0.00000 268.45422 0.00000 -999.00000 -999.00000 -999.00000 
1.01511 0.10000 -0.00165 0.15020 312.73840 -0.00000 268.43005 0.00000 -999.00000 -999.00000 -999.00000 
1.01506 0.10000 -0.00166 0.14998 312.89853 -0.00000 268.42856 0.00000 -999.00000 -999.00000 -999.00000 
1.01410 0.10000 -0.00178 0.14770 314.43796 0.00000 268.40515 0.00000 -999.00000 -999.00000 -999.00000 
1.01405 0.10000 -0.00178 0.14754 314.54059 0.00000 268.40372 0.00000 -999.00000 -999.00000 -999.00000 
1.01303 0.10000 -0.00191 0.14433 316.59460 -0.00000 268.37900 0.00000 -999.00000 -999.00000 -999.00000 
1.01297 0.10000 -0.00192 0.14417 316.69489 -0.00000 268.37762 0.00000 -999.00000 -999.00000 -999.00000 
1.01189 0.10000 -0.00205 0.14095 318.77783 -0.00000 268.35043 0.00000 -999.00000 -999.00000 -999.00000 
1.01183 0.10000 -0.00206 0.14079 318.87802 -0.00000 268.34891 0.00000 -999.00000 -999.00000 -999.00000 
1.01067 0.10000 -0.00220 0.13705 321.41205 0.00000 268.32074 0.00000 -999.00000 -999.00000 -999.00000 
1.01060 0.10000 -0.00221 0.13684 321.55972 0.00000 268.31915 0.00000 -999.00000 -999.00000 -999.00000 
1.00937 0.10000 -0.00237 0.13424 323.31549 0.00000 268.29355 0.00000 -999.00000 -999.00000 -999.00000 
1.00930 0.10000 -0.00237 0.13407 323.42795 0.00000 268.29208 0.00000 -999.00000 -999.00000 -999.00000 
1.00798 0.10000 -0.00254 0.13125 325.17975 -0.00000 268.26559 0.00000 -999.00000 -999.00000 -999.00000 
1.00791 0.10000 -0.00255 0.13108 325.28333 -0.00000 268.26407 0.00000 -999.00000 -999.00000 -999.00000 
1.00651 0.10000 -0.00272 0.12720 327.74072 0.00000 268.23624 0.00000 -999.00000 -999.00000 -999.00000 
1.00643 0.10000 -0.00273 0.12703 327.84955 0.00000 268.23471 0.00000 -999.00000 -999.00000 -999.00000 
1.00493 0.10000 -0.00291 0.12442 329.72467 -0.00000 268.20953 0.00000 -999.00000 -999.00000 -999.00000 
1.00485 0.10000 -0.00292 0.12423 329.86655 -0.00000 268.20801 0.00000 -999.00000 -999.00000 -999.00000 
1.00326 0.10000 -0.00312 0.12116 331.83276 -0.00000 268.18152 0.00000 -999.00000 -999.00000 -999.00000 
1.00317 0.10000 -0.00313 0.12098 331.94275 -0.00000 268.17999 0.00000 -999.00000 -999.00000 -999.00000 
1.00147 0.10000 -0.00334 0.11791 334.01413 -0.00000 268.15295 0.00000 -999.00000 -999.00000 -999.00000 
1.00137 0.10000 -0.00335 0.11772 334.13858 -0.00000 268.15137 0.00000 -999.00000 -999.00000 -999.00000 
0.99956 0.10000 -0.00357 0.11435 336.37708 -0.00000 268.12396 0.00000 -999.00000 -999.00000 -999.00000 
0.99946 0.10000 -0.00359 0.11418 336.50372 -0.00000 268.12241 0.00000 -999.00000 -999.00000 -999.00000 
0.99752 0.10000 -0.00382 0.11070 338.63248 -0.00000 268.09305 0.00000 -999.00000 -999.00000 -999.00000 
0.99742 0.10000 -0.00384 0.11052 338.74219 -0.00000 268.09143 0.00000 -999.00000 -999.00000 -999.00000 
0.99536 0.10000 -0.00409 0.10681 341.19946 -0.00000 268.06064 0.00000 -999.00000 -999.00000 -999.00000 
0.99524 0.10000 -0.00410 0.10660 341.35257 -0.00000 268.05887 0.00000 -999.00000 -999.00000 -999.00000 
0.99304 0.10000 -0.00437 0.10288 343.55893 -0.00000 268.02625 0.00000 -999.00000 -999.00000 -999.00000 
0.99292 0.10000 -0.00439 0.10267 343.68237 -0.00000 268.02435 0.00000 -999.00000 -999.00000 -999.00000 
0.99057 0.10000 -0.00468 0.09835 346.37305 -0.00000 267.98984 0.00000 -999.00000 -999.00000 -999.00000 
0.99044 0.10000 -0.00469 0.09811 346.53204 -0.00000 267.98785 0.00000 -999.00000 -999.00000 -999.00000 
0.98794 0.10000 -0.00500 0.09426 348.74985 0.00000 267.95212 0.00000 -999.00000 -999.00000 -999.00000 
0.98780 0.10000 -0.00502 0.09402 348.88000 0.00000 267.95001 0.00000 -999.00000 -999.00000 -999.00000 
0.98514 0.10000 -0.00534 0.08904 351.93649 -0.00000 267.91092 0.00000 -999.00000 -999.00000 -999.00000 
0.98499 0.10000 -0.00536 0.08876 352.11246 -0.00000 267.90866 0.00000 -999.00000 -999.00000 -999.00000 
0.98214 0.10000 -0.00571 0.08406 354.79108 -0.00000 267.86826 0.00000 -999.00000 -999.00000 -999.00000 
0.98198 0.10000 -0.00573 0.08378 354.94370 -0.00000 267.86591 0.00000 -999.00000 -999.00000 -999.00000 
0.97895 0.10000 -0.00611 0.07908 357.85944 0.00000 267.82455 0.00000 -999.00000 -999.00000 -999.00000 
0.97878 0.10000 -0.00613 0.07881 358.03879 0.00000 267.82214 0.00000 -999.00000 -999.00000 -999.00000 
0.97555 0.10000 -0.00653 0.07356 361.33820 0.00000 267.77872 0.00000 -999.00000 -999.00000 -999.00000 
0.97537 0.10000 -0.00655 0.07326 361.53522 0.00000 267.77621 0.00000 -999.00000 -999.00000 -999.00000 
0.97193 0.10000 -0.00698 0.06797 364.67911 0.00000 267.73096 0.00000 -999.00000 -999.00000 -999.00000 
0.97174 0.10000 -0.00700 0.06765 364.87015 0.00000 267.72833 0.00000 -999.00000 -999.00000 -999.00000 
0.96807 0.10000 -0.00745 0.06238 368.17371 0.00000 267.68152 0.00000 -999.00000 -999.00000 -999.00000 
0.96786 0.10000 -0.00748 0.06207 368.35455 0.00000 267.67877 0.00000 -999.00000 -999.00000 -999.00000 
0.96396 0.10000 -0.00796 0.05615 372.06686 0.00000 267.62924 0.00000 -999.00000 -999.00000 -999.00000 
0.96373 0.10000 -0.00799 0.05580 372.28168 0.00000 267.62634 0.00000 -999.00000 -999.00000 -999.00000 
0.95958 0.10000 -0.00850 0.04985 376.04712 -0.00000 267.57507 0.00000 -999.00000 -999.00000 -999.00000 
0.95934 0.10000 -0.00853 0.04950 376.26721 -0.00000 267.57214 0.00000 -999.00000 -999.00000 -999.00000 
0.95491 0.10000 -0.00907 0.04351 380.09381 -0.00000 267.51996 0.00000 -999.00000 -999.00000 -999.00000 
0.95466 0.10000 -0.00910 0.04316 380.31744 -0.00000 267.51697 0.00000 -999.00000 -999.00000 -999.00000 
0.94995 0.10000 -0.00968 0.03669 384.38379 0.00000 267.46326 0.00000 -999.00000 -999.00000 -999.00000 
0.94969 0.10000 -0.00971 0.03633 384.61096 0.00000 267.46014 0.00000 -999.00000 -999.00000 -999.00000 
0.94468 0.10000 -0.01032 0.03004 388.41202 -0.00000 267.40494 0.00000 -999.00000 -999.00000 -999.00000 
0.94439 0.10000 -0.01035 0.02965 388.64490 -0.00000 267.40173 0.00000 -999.00000 -999.00000 -999.00000 
0.93907 0.10000 -0.01100 0.02281 392.83908 0.00000 267.34525 0.00000 -999.00000 -999.00000 -999.00000 
0.93877 0.10000 -0.01103 0.02243 393.07230 0.00000 267.34198 0.00000 -999.00000 -999.00000 -999.00000 
0.93311 0.10000 -0.01171 0.01607 397.03604 0.00000 267.28525 0.00000 -999.00000 -999.00000 -999.00000 
0.93279 0.10000 -0.01175 0.01569 397.27795 0.00000 267.28201 0.00000 -999.00000 -999.00000 -999.00000 
0.92678 0.10000 -0.01246 0.00866 401.70154 -0.00000 267.22388 0.00000 -999.00000 -999.00000 -999.00000 
0.92644 0.10000 -0.01250 0.00828 401.95712 -0.00000 267.22067 0.00000 -999.00000 -999.00000 -999.00000 
0.92007 0.10000 -0.01324 0.00166 406.43405 -0.00000 267.16306 0.00000 -999.00000 -999.00000 -999.00000 
0.91971 0.10000 -0.01329 0.00129 406.66946 -0.00000 267.15985 0.00000 -999.00000 -999.00000 -999.00000 
0.91296 0.10000 -0.01407 -0.00537 410.63779 0.00000 267.10120 0.00000 -999.00000 -999.00000 -999.00000 
0.91258 0.10000 -0.01411 -0.00577 410.87244 0.00000 267.09787 0.00000 -999.00000 -999.00000 -999.00000 
0.90542 0.10000 -0.01493 -0.01321 415.42831 -0.00000 267.03720 0.00000 -999.00000 -999.00000 -999.00000 
0.90502 0.10000 -0.01497 -0.01359 415.68643 -0.00000 267.03387 0.00000 -999.00000 -999.00000 -999.00000 
0.89745 0.10000 -0.01582 -0.02033 419.91592 0.00000 266.97461 0.00000 -999.00000 -999.00000 -999.00000 
0.89703 0.10000 -0.01587 -0.02072 420.13748 0.00000 266.97137 0.00000 -999.00000 -999.00000 -999.00000 
0.88903 0.10000 -0.01675 -0.02771 424.50671 0.00000 266.91464 0.00000 -999.00000 -999.00000 -999.00000 
0.88858 0.10000 -0.01680 -0.02806 424.75415 0.00000 266.91156 0.00000 -999.00000 -999.00000 -999.00000 
0.88014 0.10000 -0.01772 -0.03390 428.56360 0.00000 266.85733 0.00000 -999.00000 -999.00000 -999.00000 
0.87966 0.10000 -0.01777 -0.03427 428.77795 0.00000 266.85437 0.00000 -999.00000 -999.00000 -999.00000 
0.87076 0.10000 -0.01872 -0.04068 433.20303 -0.00000 266.80078 0.00000 -999.00000 -999.00000 -999.00000 
0.87026 0.10000 -0.01878 -0.04098 433.41879 -0.00000 266.79794 0.00000 -999.00000 -999.00000 -999.00000 
0.86088 0.10000 -0.01976 -0.04748 437.27359 0.00000 266.74683 0.00000 -999.00000 -999.00000 -999.00000 
0.86035 0.10000 -0.01981 -0.04780 437.49445 0.00000 266.74414 0.00000 -999.00000 -999.00000 -999.00000 
0.85050 0.10000 -0.02082 -0.05288 440.94400 0.00000 266.69669 0.00000 -999.00000 -999.00000 -999.00000 
0.84994 0.10000 -0.02088 -0.05320 441.12454 0.00000 266.69412 0.00000 -999.00000 -999.00000 -999.00000 
0.83960 0.10000 -0.02192 -0.05823 444.88129 -0.00000 266.64771 0.00000 -999.00000 -999.00000 -999.00000 
0.83901 0.10000 -0.02198 -0.05853 445.07947 -0.00000 266.64508 0.00000 -999.00000 -999.00000 -999.00000 
0.82817 0.10000 -0.02305 -0.06415 448.97302 0.00000 266.59772 0.00000 -999.00000 -999.00000 -999.00000 
0.82755 0.10000 -0.02311 -0.06445 449.17209 0.00000 266.59509 0.00000 -999.00000 -999.00000 -999.00000 
0.81621 0.10000 -0.02421 -0.07014 452.99133 -0.00000 266.54803 0.00000 -999.00000 -999.00000 -999.00000 
0.81556 0.10000 -0.02428 -0.07044 453.16837 -0.00000 266.54550 0.00000 -999.00000 -999.00000 -999.00000 
0.80371 0.10000 -0.02540 -0.07575 456.77167 0.00000 266.49969 0.00000 -999.00000 -999.00000 -999.00000 
0.80304 0.10000 -0.02547 -0.07604 456.99976 0.00000 266.49716 0.00000 -999.00000 -999.00000 -999.00000 
0.79068 0.10000 -0.02662 -0.08145 460.73685 -0.00000 266.45056 0.00000 -999.00000 -999.00000 -999.00000 
0.78998 0.10000 -0.02669 -0.08175 460.94446 -0.00000 266.44791 0.00000 -999.00000 -999.00000 -999.00000 
0.77713 0.10000 -0.02787 -0.08750 464.82263 -0.00000 266.39822 0.00000 -999.00000 -999.00000 -999.00000 
0.77640 0.10000 -0.02793 -0.08784 465.03699 -0.00000 266.39542 0.00000 -999.00000 -999.00000 -999.00000 
0.76305 0.10000 -0.02913 -0.09364 469.53268 0.00000 266.34283 0.00000 -999.00000 -999.00000 -999.00000 
0.76230 0.10000 -0.02920 -0.09399 469.75195 0.00000 266.33997 0.00000 -999.00000 -999.00000 -999.00000 
0.74847 0.10000 -0.03042 -0.10046 473.99304 0.00000 266.28531 0.00000 -999.00000 -999.00000 -999.00000 
0.74768 0.10000 -0.03049 -0.10079 474.21997 0.00000 266.28247 0.00000 -999.00000 -999.00000 -999.00000 
0.73339 0.10000 -0.03172 -0.10726 478.33441 -0.00000 266.22833 0.00000 -999.00000 -999.00000 -999.00000 
0.73258 0.10000 -0.03179 -0.10757 478.59973 -0.00000 266.22552 0.00000 -999.00000 -999.00000 -999.00000 
0.71784 0.10000 -0.03303 -0.11409 482.93170 0.00000 266.17117 0.00000 -999.00000 -999.00000 -999.00000 
0.71701 0.10000 -0.03310 -0.11440 483.19202 0.00000 266.16821 0.00000 -999.00000 -999.00000 -999.00000 
0.70185 0.10000 -0.03435 -0.12160 488.41736 0.00000 266.10931 0.00000 -999.00000 -999.00000 -999.00000 
0.70099 0.10000 -0.03442 -0.12194 488.66721 0.00000 266.10608 0.00000 -999.00000 -999.00000 -999.00000 
0.68543 0.10000 -0.03566 -0.12954 494.78656 -0.00000 266.04303 0.00000 -999.00000 -999.00000 -999.00000 
0.68455 0.10000 -0.03573 -0.12995 495.04788 -0.00000 266.03955 0.00000 -999.00000 -999.00000 -999.00000 
0.66864 0.10000 -0.03695 -0.13698 501.09790 0.00000 265.97595 0.00000 -999.00000 -999.00000 -999.00000 
0.66774 0.10000 -0.03702 -0.13744 501.39963 0.00000 265.97232 0.00000 -999.00000 -999.00000 -999.00000 
0.65150 0.10000 -0.03822 -0.14433 507.17548 -0.00000 265.91028 0.00000 -999.00000 -999.00000 -999.00000 
0.65058 0.10000 -0.03829 -0.14477 507.49542 -0.00000 265.90680 0.00000 -999.00000 -999.00000 -999.00000 
0.63405 0.10000 -0.03945 -0.15135 513.49438 0.00000 265.84744 0.00000 -999.00000 -999.00000 -999.00000 
0.63311 0.10000 -0.03952 -0.15173 513.80811 0.00000 265.84421 0.00000 -999.00000 -999.00000 -999.00000 
0.61634 0.10000 -0.04063 -0.15879 519.94000 -0.00000 265.78595 0.00000 -999.00000 -999.00000 -999.00000 
0.61539 0.10000 -0.04069 -0.15911 520.23724 -0.00000 265.78305 0.00000 -999.00000 -999.00000 -999.00000 
0.59842 0.10000 -0.04174 -0.16597 524.87543 0.00000 265.73050 0.00000 -999.00000 -999.00000 -999.00000 
0.59746 0.10000 -0.04180 -0.16621 525.16400 0.00000 265.72812 0.00000 -999.00000 -999.00000 -999.00000 
0.58034 0.10000 -0.04277 -0.16919 529.75708 -0.00000 265.69000 0.00000 -999.00000 -999.00000 -999.00000 
0.57937 0.10000 -0.04283 -0.16943 530.13678 -0.00000 265.68762 0.00000 -999.00000 -999.00000 -999.00000 
0.56214 0.10000 -0.04371 -0.17494 538.78864 -0.00000 265.65170 0.00000 -999.00000 -999.00000 -999.00000 
0.56117 0.10000 -0.04376 -0.17528 538.97571 -0.00000 265.64960 0.00000 -999.00000 -999.00000 -999.00000 
0.54389 0.10000 -0.04455 -0.17665 540.96600 0.00000 265.62143 0.00000 -999.00000 -999.00000 -999.00000 
0.54291 0.10000 -0.04460 -0.17674 541.37915 0.00000 265.62015 0.00000 -999.00000 -999.00000 -999.00000 
0.52564 0.10000 -0.04528 -0.17944 544.56390 -0.00000 265.60080 0.00000 -999.00000 -999.00000 -999.00000 
0.52466 0.10000 -0.04532 -0.17954 544.70551 -0.00000 265.59988 0.00000 -999.00000 -999.00000 -999.00000 
0.50743 0.10000 -0.04590 -0.18117 548.56305 -0.00000 265.59174 0.00000 -999.00000 -999.00000 -999.00000 
0.50646 0.10000 -0.04593 -0.18124 548.76385 -0.00000 265.59134 0.00000 -999.00000 -999.00000 -999.00000 
0.48933 0.10000 -0.04639 -0.18121 555.10565 0.00000 265.59134 0.00000 -999.00000 -999.00000 -999.00000 
0.48837 0.10000 -0.04642 -0.18123 555.38159 0.00000 265.59134 0.00000 -999.00000 -999.00000 -999.00000 
0.47139 0.10000 -0.04677 -0.18112 561.10217 0.00000 265.59802 0.00000 -999.00000 -999.00000 -999.00000 
0.47043 0.10000 -0.04679 -0.18102 560.90796 0.00000 265.59894 0.00000 -999.00000 -999.00000 -999.00000 
0.45366 0.10000 -0.04703 -0.17772 563.18750 0.00000 265.61948 0.00000 -999.00000 -999.00000 -999.00000 
0.45271 0.10000 -0.04704 -0.17751 563.57391 0.00000 265.62119 0.00000 -999.00000 -999.00000 -999.00000 
0.43618 0.10000 -0.04718 -0.17483 562.89014 -0.00000 265.64783 0.00000 -999.00000 -999.00000 -999.00000 
0.43525 0.10000 -0.04718 -0.17462 562.95471 -0.00000 265.64960 0.00000 -999.00000 -999.00000 -999.00000 
0.41901 0.10000 -0.04722 -0.17118 561.54907 0.00000 265.68137 0.00000 -999.00000 -999.00000 -999.00000 
0.41809 0.10000 -0.04722 -0.17097 561.51746 0.00000 265.68335 0.00000 -999.00000 -999.00000 -999.00000 
0.40217 0.10000 -0.04716 -0.16658 559.94806 -0.00000 265.71967 0.00000 -999.00000 -999.00000 -999.00000 
0.40127 0.10000 -0.04715 -0.16633 559.89386 -0.00000 265.72186 0.00000 -999.00000 -999.00000 -999.00000 
0.38572 0.10000 -0.04701 -0.16190 558.67963 0.00000 265.75967 0.00000 -999.00000 -999.00000 -999.00000 
0.38484 0.10000 -0.04700 -0.16163 558.70178 0.00000 265.76221 0.00000 -999.00000 -999.00000 -999.00000 
0.36968 0.10000 -0.04678 -0.15658 560.83862 -0.00000 265.80637 0.00000 -999.00000 -999.00000 -999.00000 
0.36882 0.10000 -0.04676 -0.15618 560.95526 -0.00000 265.80914 0.00000 -999.00000 -999.00000 -999.00000 
0.35408 0.10000 -0.04647 -0.15116 561.07684 -0.00000 265.85425 0.00000 -999.00000 -999.00000 -999.00000 
0.35325 0.10000 -0.04646 -0.15094 561.09711 -0.00000 265.85693 0.00000 -999.00000 -999.00000 -999.00000 
0.33895 0.10000 -0.04611 -0.14461 563.49316 -0.00000 265.90314 0.00000 -999.00000 -999.00000 -999.00000 
0.33814 0.10000 -0.04609 -0.14418 563.58862 -0.00000 265.90601 0.00000 -999.00000 -999.00000 -999.00000 
0.32431 0.10000 -0.04568 -0.14033 563.68109 0.00000 265.95428 0.00000 -999.00000 -999.00000 -999.00000 
0.32353 0.10000 -0.04566 -0.13999 563.79193 0.00000 265.95709 0.00000 -999.00000 -999.00000 -999.00000 
0.31018 0.10000 -0.04521 -0.13352 565.82184 0.00000 266.00537 0.00000 -999.00000 -999.00000 -999.00000 
0.30943 0.10000 -0.04519 -0.13330 565.94836 0.00000 266.00778 0.00000 -999.00000 -999.00000 -999.00000 
0.29657 0.10000 -0.04470 -0.12740 568.32019 -0.00000 266.05283 0.00000 -999.00000 -999.00000 -999.00000 
0.29584 0.10000 -0.04467 -0.12719 568.49567 -0.00000 266.05496 0.00000 -999.00000 -999.00000 -999.00000 
0.28348 0.10000 -0.04416 -0.12262 571.76886 -0.00000 266.09396 0.00000 -999.00000 -999.00000 -999.00000 
0.28278 0.10000 -0.04413 -0.12236 571.95306 -0.00000 266.09622 0.00000 -999.00000 -999.00000 -999.00000 
0.27093 0.10000 -0.04358 -0.11838 575.50702 -0.00000 266.13272 0.00000 -999.00000 -999.00000 -999.00000 
0.27026 0.10000 -0.04355 -0.11807 575.71246 -0.00000 266.13504 0.00000 -999.00000 -999.00000 -999.00000 
0.25891 0.10000 -0.04298 -0.11404 579.40875 -0.00000 266.17130 0.00000 -999.00000 -999.00000 -999.00000 
0.25827 0.10000 -0.04294 -0.11377 579.63959 -0.00000 266.17337 0.00000 -999.00000 -999.00000 -999.00000 
0.24743 0.10000 -0.04235 -0.10963 583.45557 0.00000 266.20752 0.00000 -999.00000 -999.00000 -999.00000 
0.24681 0.10000 -0.04232 -0.10945 583.70831 0.00000 266.20920 0.00000 -999.00000 -999.00000 -999.00000 
0.23647 0.10000 -0.04171 -0.10628 587.79779 -0.00000 266.23624 0.00000 -999.00000 -999.00000 -999.00000 
0.23588 0.10000 -0.04168 -0.10615 588.07806 -0.00000 266.23767 0.00000 -999.00000 -999.00000 -999.00000 
0.22603 0.10000 -0.04105 -0.10396 592.34674 -0.00000 266.25806 0.00000 -999.00000 -999.00000 -999.00000 
0.22547 0.10000 -0.04102 -0.10379 592.64813 -0.00000 266.25961 0.00000 -999.00000 -999.00000 -999.00000 
0.21610 0.10000 -0.04038 -0.10197 597.43536 -0.00000 266.27991 0.00000 -999.00000 -999.00000 -999.00000 
0.21557 0.10000 -0.04035 -0.10175 597.73657 -0.00000 266.28177 0.00000 -999.00000 -999.00000 -999.00000 
0.20667 0.10000 -0.03970 -0.09916 602.37976 -0.00000 266.30734 0.00000 -999.00000 -999.00000 -999.00000 
0.20617 0.10000 -0.03967 -0.09888 602.67755 -0.00000 266.30951 0.00000 -999.00000 -999.00000 -999.00000 
0.19772 0.10000 -0.03902 -0.09536 607.34399 -0.00000 266.34048 0.00000 -999.00000 -999.00000 -999.00000 
0.19725 0.10000 -0.03898 -0.09508 607.62128 -0.00000 266.34274 0.00000 -999.00000 -999.00000 -999.00000 
0.18925 0.10000 -0.03833 -0.09105 612.14642 0.00000 266.37662 0.00000 -999.00000 -999.00000 -999.00000 
0.18880 0.10000 -0.03829 -0.09080 612.39795 0.00000 266.37881 0.00000 -999.00000 -999.00000 -999.00000 
0.18123 0.10000 -0.03764 -0.08638 616.68604 0.00000 266.41483 0.00000 -999.00000 -999.00000 -999.00000 
0.18081 0.10000 -0.03760 -0.08613 616.90295 0.00000 266.41699 0.00000 -999.00000 -999.00000 -999.00000 
0.17365 0.10000 -0.03694 -0.08149 621.49115 -0.00000 266.45352 0.00000 -999.00000 -999.00000 -999.00000 
0.17325 0.10000 -0.03691 -0.08126 621.70984 -0.00000 266.45557 0.00000 -999.00000 -999.00000 -999.00000 
0.16650 0.10000 -0.03626 -0.07710 625.98596 -0.00000 266.49060 0.00000 -999.00000 -999.00000 -999.00000 
0.16611 0.10000 -0.03622 -0.07688 626.21033 -0.00000 266.49258 0.00000 -999.00000 -999.00000 -999.00000 
0.15974 0.10000 -0.03557 -0.07291 630.39941 0.00000 266.52670 0.00000 -999.00000 -999.00000 -999.00000 
0.15938 0.10000 -0.03553 -0.07270 630.62683 0.00000 266.52866 0.00000 -999.00000 -999.00000 -999.00000 
0.15338 0.10000 -0.03489 -0.06881 634.74030 -0.00000 266.56213 0.00000 -999.00000 -999.00000 -999.00000 
0.15304 0.10000 -0.03486 -0.06858 634.97571 -0.00000 266.56406 0.00000 -999.00000 -999.00000 -999.00000 
0.14738 0.10000 -0.03422 -0.06505 639.30542 0.00000 266.59601 0.00000 -999.00000 -999.00000 -999.00000 
0.14706 0.10000 -0.03419 -0.06482 639.54602 0.00000 266.59790 0.00000 -999.00000 -999.00000 -999.00000 
0.14174 0.10000 -0.03357 -0.06140 643.75488 0.00000 266.62836 0.00000 -999.00000 -999.00000 -999.00000 
0.14143 0.10000 -0.03353 -0.06120 643.97919 0.00000 266.63019 0.00000 -999.00000 -999.00000 -999.00000 
0.13642 0.10000 -0.03292 -0.05788 648.46637 0.00000 266.65891 0.00000 -999.00000 -999.00000 -999.00000 
0.13614 0.10000 -0.03289 -0.05769 648.72870 0.00000 266.66061 0.00000 -999.00000 -999.00000 -999.00000 
0.13143 0.10000 -0.03229 -0.05470 653.14844 -0.00000 266.68622 0.00000 -999.00000 -999.00000 -999.00000 
0.13116 0.10000 -0.03225 -0.05451 653.40179 -0.00000 266.68777 0.00000 -999.00000 -999.00000 -999.00000 
0.12674 0.10000 -0.03167 -0.05201 658.25531 -0.00000 267.66354 0.00000 -999.00000 -999.00000 -999.00000 
0.12649 0.10000 -0.03164 -0.05187 658.50439 -0.00000 267.83878 0.00000 -999.00000 -999.00000 -999.00000 
0.12233 0.10000 -0.03107 -0.04963 663.29517 -0.00000 271.51862 0.00000 -999.00000 -999.00000 -999.00000 
0.12209 0.10000 -0.03104 -0.04949 663.57556 -0.00000 271.68036 0.00000 -999.00000 -999.00000 -999.00000 
0.11819 0.10000 -0.03049 -0.04801 668.85559 -0.00000 273.14999 0.00000 -999.00000 -999.00000 -999.00000 
0.11796 0.10000 -0.03045 -0.04792 669.13489 -0.00000 273.14999 0.00000 -999.00000 -999.00000 -999.00000 
0.11430 0.10000 -0.02992 -0.04731 674.84076 0.00000 273.14999 0.00000 -999.00000 -999.00000 -999.00000 
0.11409 0.10000 -0.02989 -0.04724 675.12079 0.00000 273.14999 0.00000 -999.00000 -999.00000 -999.00000 
0.11065 0.10000 -0.02937 -0.04849 682.12378 0.00000 273.14999 0.00000 -999.00000 -999.00000 -999.00000 
0.11045 0.10000 -0.02934 -0.04853 682.51831 0.00000 273.14999 0.00000 -999.00000 -999.00000 -999.00000 
0.10723 0.10000 -0.02884 -0.05210 690.84229 -0.00000 273.14999 0.00000 -999.00000 -999.00000 -999.00000 
0.10704 0.10000 -0.02882 -0.05227 691.29529 -0.00000 273.14999 0.00000 -999.00000 -999.00000 -999.00000 
0.10401 0.10000 -0.02834 -0.05788 701.65564 -0.00000 273.14999 0.00000 -999.00000 -999.00000 -999.00000 
0.10384 0.10000 -0.02831 -0.05817 702.17877 -0.00000 273.14999 0.00000 -999.00000 -999.00000 -999.00000 
0.10100 0.10000 -0.02784 -0.06471 712.40894 -0.00000 273.14999 0.00000 -999.00000 -999.00000 -999.00000 
0.10084 0.10000 -0.02781 -0.06518 713.03607 -0.00000 273.14999 0.00000 -999.00000 -999.00000 -999.00000 
0.09818 0.10000 -0.02736 -0.07421 724.19867 -0.00000 273.14999 0.00000 -999.00000 -999.00000 -999.00000 
0.09803 0.10000 -0.02733 -0.07480 724.91675 -0.00000 273.14999 0.00000 -999.00000 -999.00000 -999.00000 
0.09553 0.10000 -0.02688 -0.08820 739.57587 0.00000 273.14999 0.00000 -999.00000 -999.00000 -999.00000 
0.09538 0.10000 -0.02686 -0.08864 740.19287 0.00000 273.14999 0.00000 -999.00000 -999.00000 -999.00000 
0.09304 0.10000 -0.02641 -0.10004 753.79309 0.00716 273.14999 0.00000 -999.00000 -999.00000 -999.00000 
0.09291 0.10000 -0.02638 -0.10069 754.59595 0.00748 273.14999 0.00000 -999.00000 -999.00000 -999.00000 
0.09071 0.10000 -0.02593 -0.10953 767.09979 0.01293 273.14999 0.00000 -999.00000 -999.00000 -999.00000 
0.09059 0.10000 -0.02590 -0.11011 767.78271 0.01396 273.14999 0.00193 -999.00000 -999.00000 -999.00000 
0.08853 0.10000 -0.02544 -0.11549 777.32440 0.04391 273.14999 0.03529 -999.00000 -999.00000 -999.00000 