VARIABLES = "CoordinateX" "CoordinateY" "CoordinateZ"
ZONE T="SLICE_Y_0p9144"
0.53339793 0.91440 0.00066756
0.53339534 0.91440 -0.00058567
0.53339904 0.91440 -0.00049520
0.53340274 0.91440 -0.00040472
0.53339646 0.91440 -0.00031494
0.53340016 0.91440 -0.00022446
0.53340386 0.91440 -0.00013398
0.53339758 0.91440 -0.00004420
0.53340128 0.91440 0.00004628
0.53339500 0.91440 0.00013606
0.53339870 0.91440 0.00022654
0.53340239 0.91440 0.00031702
0.53339612 0.91440 0.00040680
0.53339981 0.91440 0.00049728
0.53340421 0.91440 0.00057778
-0.00000468 0.91440 -0.00000236
0.08787890 0.91440 0.02924935
0.08931330 0.91440 0.02937972
0.09081823 0.91440 0.02950501
0.09239368 0.91440 0.02962520
0.09405822 0.91440 0.02976164
0.09580326 0.91440 0.02989369
0.09762880 0.91440 0.03002135
0.09955410 0.91440 0.03015598
0.10156988 0.91440 0.03028691
0.10369539 0.91440 0.03042551
0.10592135 0.91440 0.03056112
0.10825774 0.91440 0.03069442
0.11071454 0.91440 0.03082612
0.11329174 0.91440 0.03095621
0.11586964 0.91440 0.03107633
0.11844824 0.91440 0.03118647
0.12101686 0.91440 0.03129592
0.12359616 0.91440 0.03139609
0.12617615 0.91440 0.03148628
0.12874687 0.91440 0.03156579
0.13132826 0.91440 0.03163603
0.13389967 0.91440 0.03170558
0.13648176 0.91440 0.03176584
0.13906454 0.91440 0.03181613
0.14163735 0.91440 0.03186572
0.14421085 0.91440 0.03190533
0.14679503 0.91440 0.03193567
0.14936923 0.91440 0.03196531
0.15195411 0.91440 0.03198567
0.15452901 0.91440 0.03200534
0.15710531 0.91440 0.03200505
0.15968091 0.91440 0.03201474
0.16225720 0.91440 0.03201445
0.16484417 0.91440 0.03200488
0.16742116 0.91440 0.03199462
0.16999885 0.91440 0.03197438
0.17257724 0.91440 0.03194417
0.17515493 0.91440 0.03192393
0.17773402 0.91440 0.03188374
0.18031311 0.91440 0.03184355
0.18288222 0.91440 0.03180266
0.18546200 0.91440 0.03175250
0.18804178 0.91440 0.03170233
0.19062226 0.91440 0.03164219
0.19319277 0.91440 0.03158135
0.19577395 0.91440 0.03151123
0.19835513 0.91440 0.03144112
0.20092633 0.91440 0.03137030
0.20350821 0.91440 0.03129021
0.20608011 0.91440 0.03120942
0.20866268 0.91440 0.03111935
0.21123528 0.91440 0.03102859
0.21380788 0.91440 0.03093782
0.21639115 0.91440 0.03083778
0.21896445 0.91440 0.03073704
0.22153844 0.91440 0.03062632
0.22411243 0.91440 0.03051560
0.22669640 0.91440 0.03040558
0.22927039 0.91440 0.03029487
0.23184509 0.91440 0.03017417
0.23442047 0.91440 0.03004350
0.23699516 0.91440 0.02992281
0.23957055 0.91440 0.02979214
0.24214594 0.91440 0.02966148
0.24472203 0.91440 0.02952083
0.24728814 0.91440 0.02937949
0.24986422 0.91440 0.02923885
0.25244031 0.91440 0.02909820
0.25501709 0.91440 0.02894758
0.25758390 0.91440 0.02879627
0.26016069 0.91440 0.02864565
0.26273817 0.91440 0.02848505
0.26530567 0.91440 0.02832376
0.26788315 0.91440 0.02816316
0.27045066 0.91440 0.02800187
0.27302884 0.91440 0.02783130
0.27559704 0.91440 0.02766003
0.27817522 0.91440 0.02748946
0.28074412 0.91440 0.02730822
0.28331232 0.91440 0.02713695
0.28589120 0.91440 0.02695640
0.28846010 0.91440 0.02677516
0.29102970 0.91440 0.02658394
0.29359860 0.91440 0.02640269
0.29617817 0.91440 0.02621217
0.29874777 0.91440 0.02602095
0.30131807 0.91440 0.02581976
0.30388766 0.91440 0.02562854
0.30645796 0.91440 0.02542734
0.30902826 0.91440 0.02522615
0.31159855 0.91440 0.02502495
0.31416955 0.91440 0.02481378
0.31673984 0.91440 0.02461258
0.31931083 0.91440 0.02440141
0.32188183 0.91440 0.02419024
0.32444285 0.91440 0.02397837
0.32701454 0.91440 0.02375723
0.32958553 0.91440 0.02354606
0.33215722 0.91440 0.02332491
0.33471894 0.91440 0.02310306
0.33729063 0.91440 0.02288192
0.33986302 0.91440 0.02265080
0.34242473 0.91440 0.02242895
0.34499712 0.91440 0.02219783
0.34755953 0.91440 0.02196601
0.35013192 0.91440 0.02173489
0.35269433 0.91440 0.02150307
0.35526742 0.91440 0.02126197
0.35783053 0.91440 0.02102017
0.36040362 0.91440 0.02077908
0.36296673 0.91440 0.02053728
0.36552984 0.91440 0.02029549
0.36810292 0.91440 0.02005439
0.37066673 0.91440 0.01980262
0.37322984 0.91440 0.01956082
0.37579365 0.91440 0.01930905
0.37836743 0.91440 0.01905798
0.38093124 0.91440 0.01880621
0.38349575 0.91440 0.01854446
0.38605955 0.91440 0.01829269
0.38862406 0.91440 0.01803094
0.39118857 0.91440 0.01776919
0.39375307 0.91440 0.01750745
0.39631758 0.91440 0.01724570
0.39888278 0.91440 0.01697398
0.40144729 0.91440 0.01671223
0.40401249 0.91440 0.01644051
0.40657769 0.91440 0.01616879
0.40914289 0.91440 0.01589706
0.41170810 0.91440 0.01562534
0.41427330 0.91440 0.01535362
0.41682923 0.91440 0.01507122
0.41939443 0.91440 0.01479950
0.42196033 0.91440 0.01451780
0.42451625 0.91440 0.01423541
0.42708216 0.91440 0.01395371
0.42964875 0.91440 0.01366204
0.43220468 0.91440 0.01337964
0.43477128 0.91440 0.01308797
0.43732720 0.91440 0.01280557
0.43989380 0.91440 0.01251390
0.44245042 0.91440 0.01222153
0.44501772 0.91440 0.01191988
0.44757434 0.91440 0.01162751
0.45014164 0.91440 0.01132586
0.45269826 0.91440 0.01103349
0.45525558 0.91440 0.01073114
0.45782288 0.91440 0.01042949
0.46038089 0.91440 0.01011717
0.46293821 0.91440 0.00981482
0.46549623 0.91440 0.00950250
0.46806353 0.91440 0.00920085
0.47062154 0.91440 0.00888853
0.47317956 0.91440 0.00857620
0.47573828 0.91440 0.00825390
0.47829630 0.91440 0.00794158
0.48085501 0.91440 0.00761928
0.48341303 0.91440 0.00730696
0.48597174 0.91440 0.00698466
0.48853046 0.91440 0.00666237
0.49108987 0.91440 0.00633009
0.49363861 0.91440 0.00600710
0.49619802 0.91440 0.00567482
0.49875744 0.91440 0.00534255
0.50131685 0.91440 0.00501027
0.50386629 0.91440 0.00467730
0.50642570 0.91440 0.00434503
0.50898581 0.91440 0.00400278
0.51153594 0.91440 0.00365983
0.51409606 0.91440 0.00331758
0.51664619 0.91440 0.00297464
0.51920630 0.91440 0.00263239
0.52175713 0.91440 0.00227946
0.52430727 0.91440 0.00193652
0.52686808 0.91440 0.00158429
0.52941891 0.91440 0.00123137
0.53106935 0.91440 0.00099593
0.53210152 0.91440 0.00085759
0.53274972 0.91440 0.00076257
0.53314435 0.91440 0.00070997
0.53339793 0.91440 0.00066756
0.00003488 0.91440 0.00072217
0.00012431 0.91440 0.00145018
0.00028427 0.91440 0.00217310
0.00051406 0.91440 0.00290090
0.00079513 0.91440 0.00361224
0.00116458 0.91440 0.00434981
0.00160455 0.91440 0.00508228
0.00211366 0.91440 0.00582962
0.00272322 0.91440 0.00657395
0.00340192 0.91440 0.00733314
0.00419035 0.91440 0.00810001
0.00509708 0.91440 0.00889520
0.00610428 0.91440 0.00968739
0.00722120 0.91440 0.01048725
0.00841933 0.91440 0.01127274
0.00965017 0.91440 0.01202042
0.01091443 0.91440 0.01272031
0.01219145 0.91440 0.01338100
0.01348054 0.91440 0.01401246
0.01479168 0.91440 0.01461539
0.01610421 0.91440 0.01519837
0.01743948 0.91440 0.01574284
0.01877615 0.91440 0.01626736
0.02012349 0.91440 0.01678260
0.02147292 0.91440 0.01726791
0.02283373 0.91440 0.01773397
0.02420521 0.91440 0.01819076
0.02556810 0.91440 0.01862689
0.02695235 0.91440 0.01904447
0.02832731 0.91440 0.01945137
0.02971295 0.91440 0.01984900
0.03109998 0.91440 0.02022667
0.03248771 0.91440 0.02059437
0.03388612 0.91440 0.02095279
0.03528522 0.91440 0.02130124
0.03668502 0.91440 0.02163971
0.03808552 0.91440 0.02196820
0.03948671 0.91440 0.02228672
0.04088860 0.91440 0.02259526
0.04230117 0.91440 0.02289452
0.04370376 0.91440 0.02319309
0.04511772 0.91440 0.02347240
0.04653168 0.91440 0.02375172
0.04794634 0.91440 0.02402106
0.04936169 0.91440 0.02428042
0.05077775 0.91440 0.02452980
0.05219380 0.91440 0.02477919
0.05361055 0.91440 0.02501860
0.05502730 0.91440 0.02525801
0.05645472 0.91440 0.02548814
0.05787287 0.91440 0.02570760
0.05930099 0.91440 0.02592776
0.06071983 0.91440 0.02613724
0.06213868 0.91440 0.02634673
0.06356819 0.91440 0.02654693
0.06499841 0.91440 0.02673716
0.06641795 0.91440 0.02693667
0.06784886 0.91440 0.02711693
0.06927977 0.91440 0.02729718
0.07070071 0.91440 0.02747674
0.07213232 0.91440 0.02764702
0.07356393 0.91440 0.02781730
0.07499623 0.91440 0.02797760
0.07641857 0.91440 0.02813720
0.07785157 0.91440 0.02828753
0.07928457 0.91440 0.02843786
0.08071828 0.91440 0.02857821
0.08215128 0.91440 0.02872854
0.08357570 0.91440 0.02885822
0.08500941 0.91440 0.02899857
0.08644381 0.91440 0.02912895
0.08981608 0.91440 -0.02941843
0.08837422 0.91440 -0.02929872
0.09132847 0.91440 -0.02954324
0.09292136 0.91440 -0.02967244
0.09458408 0.91440 -0.02979676
0.09633798 0.91440 -0.02993475
0.09818166 0.91440 -0.03006646
0.10011512 0.91440 -0.03019189
0.10214973 0.91440 -0.03033030
0.10427412 0.91440 -0.03046244
0.10651892 0.91440 -0.03059617
0.10887345 0.91440 -0.03072224
0.11133911 0.91440 -0.03086058
0.11393445 0.91440 -0.03098985
0.11650914 0.91440 -0.03111054
0.11907316 0.91440 -0.03122196
0.12164645 0.91440 -0.03132270
0.12421905 0.91440 -0.03141346
0.12679165 0.91440 -0.03150423
0.12936355 0.91440 -0.03158502
0.13194473 0.91440 -0.03165514
0.13451523 0.91440 -0.03171598
0.13708574 0.91440 -0.03177681
0.13966552 0.91440 -0.03182698
0.14223533 0.91440 -0.03187784
0.14480374 0.91440 -0.03190876
0.14738283 0.91440 -0.03194895
0.14996052 0.91440 -0.03196918
0.15252824 0.91440 -0.03199012
0.15510523 0.91440 -0.03200038
0.15768222 0.91440 -0.03201065
0.16025852 0.91440 -0.03201093
0.16282484 0.91440 -0.03201192
0.16540044 0.91440 -0.03200223
0.16797534 0.91440 -0.03198257
0.17055024 0.91440 -0.03196290
0.17312514 0.91440 -0.03194324
0.17569934 0.91440 -0.03191360
0.17827285 0.91440 -0.03187398
0.18084635 0.91440 -0.03183437
0.18341986 0.91440 -0.03179475
0.18599267 0.91440 -0.03174516
0.18856478 0.91440 -0.03168560
0.19113758 0.91440 -0.03163601
0.19371897 0.91440 -0.03156577
0.19629108 0.91440 -0.03150620
0.19886180 0.91440 -0.03142668
0.20143321 0.91440 -0.03135714
0.20400393 0.91440 -0.03127762
0.20658392 0.91440 -0.03118743
0.20915463 0.91440 -0.03110791
0.21172465 0.91440 -0.03101842
0.21430395 0.91440 -0.03091825
0.21687327 0.91440 -0.03081878
0.21944259 0.91440 -0.03071932
0.22201121 0.91440 -0.03060987
0.22458981 0.91440 -0.03049973
0.22715843 0.91440 -0.03039028
0.22972636 0.91440 -0.03027086
0.23230426 0.91440 -0.03015075
0.23487148 0.91440 -0.03002135
0.23744939 0.91440 -0.02990123
0.24001661 0.91440 -0.02977184
0.24258314 0.91440 -0.02963246
0.24516035 0.91440 -0.02950237
0.24772688 0.91440 -0.02936300
0.25030268 0.91440 -0.02921295
0.25286921 0.91440 -0.02907358
0.25543505 0.91440 -0.02892424
0.25801085 0.91440 -0.02877419
0.26057599 0.91440 -0.02861487
0.26315110 0.91440 -0.02845485
0.26571623 0.91440 -0.02829552
0.26828137 0.91440 -0.02813620
0.27085648 0.91440 -0.02797618
0.27342092 0.91440 -0.02780688
0.27599533 0.91440 -0.02763689
0.27855907 0.91440 -0.02745761
0.28113348 0.91440 -0.02728762
0.28369722 0.91440 -0.02710834
0.28626096 0.91440 -0.02692907
0.28883468 0.91440 -0.02674910
0.29139772 0.91440 -0.02655985
0.29397074 0.91440 -0.02636990
0.29653378 0.91440 -0.02618065
0.29910679 0.91440 -0.02599070
0.30166914 0.91440 -0.02579148
0.30423218 0.91440 -0.02560223
0.30680450 0.91440 -0.02540230
0.30936685 0.91440 -0.02520308
0.31193847 0.91440 -0.02499318
0.31450081 0.91440 -0.02479395
0.31706246 0.91440 -0.02458475
0.31963408 0.91440 -0.02437486
0.32219573 0.91440 -0.02416565
0.32476665 0.91440 -0.02394578
0.32732830 0.91440 -0.02373658
0.32988925 0.91440 -0.02351740
0.33246018 0.91440 -0.02329753
0.33502113 0.91440 -0.02307835
0.33759135 0.91440 -0.02284850
0.34015230 0.91440 -0.02262932
0.34271255 0.91440 -0.02240017
0.34528278 0.91440 -0.02217032
0.34784303 0.91440 -0.02194117
0.35041326 0.91440 -0.02171132
0.35297281 0.91440 -0.02147219
0.35553237 0.91440 -0.02123306
0.35810260 0.91440 -0.02100321
0.36066215 0.91440 -0.02076409
0.36322101 0.91440 -0.02051498
0.36579054 0.91440 -0.02027516
0.36834939 0.91440 -0.02002605
0.37090895 0.91440 -0.01978693
0.37347778 0.91440 -0.01953712
0.37603664 0.91440 -0.01928802
0.37859480 0.91440 -0.01902894
0.38116363 0.91440 -0.01877914
0.38372179 0.91440 -0.01852006
0.38628064 0.91440 -0.01827096
0.38884878 0.91440 -0.01801118
0.39140694 0.91440 -0.01775210
0.39396440 0.91440 -0.01748305
0.39652256 0.91440 -0.01722397
0.39909000 0.91440 -0.01695421
0.40164815 0.91440 -0.01669514
0.40420562 0.91440 -0.01642608
0.40677305 0.91440 -0.01615633
0.40932982 0.91440 -0.01587730
0.41188728 0.91440 -0.01560824
0.41444404 0.91440 -0.01532921
0.41701148 0.91440 -0.01505946
0.41956824 0.91440 -0.01478043
0.42212501 0.91440 -0.01450140
0.42468107 0.91440 -0.01421239
0.42723784 0.91440 -0.01393336
0.42980458 0.91440 -0.01365363
0.43236064 0.91440 -0.01336463
0.43491671 0.91440 -0.01307562
0.43747278 0.91440 -0.01278662
0.44002884 0.91440 -0.01249761
0.44259419 0.91440 -0.01219793
0.44515025 0.91440 -0.01190892
0.44770562 0.91440 -0.01160994
0.45026099 0.91440 -0.01131096
0.45281636 0.91440 -0.01101198
0.45537173 0.91440 -0.01071300
0.45793707 0.91440 -0.01041332
0.46049175 0.91440 -0.01010436
0.46304711 0.91440 -0.00980538
0.46560179 0.91440 -0.00949642
0.46815646 0.91440 -0.00918746
0.47071113 0.91440 -0.00887850
0.47326510 0.91440 -0.00855957
0.47581977 0.91440 -0.00825061
0.47837375 0.91440 -0.00793168
0.48092772 0.91440 -0.00761275
0.48348169 0.91440 -0.00729382
0.48603567 0.91440 -0.00697488
0.48858894 0.91440 -0.00664597
0.49114292 0.91440 -0.00632704
0.49369619 0.91440 -0.00599813
0.49624947 0.91440 -0.00566922
0.49880275 0.91440 -0.00534031
0.50135602 0.91440 -0.00501141
0.50390860 0.91440 -0.00467252
0.50646118 0.91440 -0.00433364
0.50901376 0.91440 -0.00399475
0.51156634 0.91440 -0.00365587
0.51411891 0.91440 -0.00331698
0.51667149 0.91440 -0.00297810
0.51922337 0.91440 -0.00262924
0.52177526 0.91440 -0.00228038
0.52432714 0.91440 -0.00193152
0.52686904 0.91440 -0.00158336
0.52942023 0.91440 -0.00122452
0.53106851 0.91440 -0.00099899
0.53210109 0.91440 -0.00085662
0.53274602 0.91440 -0.00076140
0.53315293 0.91440 -0.00070287
0.53340162 0.91440 -0.00067545
0.08693166 0.91440 -0.02916903
0.08549907 0.91440 -0.02903865
0.08405651 0.91440 -0.02890896
0.08261325 0.91440 -0.02876930
0.08117997 0.91440 -0.02862894
0.07973601 0.91440 -0.02847930
0.07830203 0.91440 -0.02832896
0.07685808 0.91440 -0.02817932
0.07542340 0.91440 -0.02801901
0.07398872 0.91440 -0.02785870
0.07255405 0.91440 -0.02769838
0.07111867 0.91440 -0.02752810
0.06968260 0.91440 -0.02734783
0.06824652 0.91440 -0.02716757
0.06681045 0.91440 -0.02698730
0.06537368 0.91440 -0.02679706
0.06394619 0.91440 -0.02659615
0.06250872 0.91440 -0.02639594
0.06108123 0.91440 -0.02619502
0.05965304 0.91440 -0.02598414
0.05821418 0.91440 -0.02576397
0.05678529 0.91440 -0.02554311
0.05536568 0.91440 -0.02531157
0.05393609 0.91440 -0.02508073
0.05250581 0.91440 -0.02483991
0.05108481 0.91440 -0.02458843
0.04966380 0.91440 -0.02433694
0.04824210 0.91440 -0.02407547
0.04681970 0.91440 -0.02380403
0.04539730 0.91440 -0.02353259
0.04398348 0.91440 -0.02324051
0.04255969 0.91440 -0.02294911
0.04114587 0.91440 -0.02265703
0.03974063 0.91440 -0.02234429
0.03832472 0.91440 -0.02202227
0.03691878 0.91440 -0.02169956
0.03551145 0.91440 -0.02135690
0.03410412 0.91440 -0.02101423
0.03270537 0.91440 -0.02065092
0.03130662 0.91440 -0.02028761
0.02991645 0.91440 -0.01990364
0.02852558 0.91440 -0.01950971
0.02713332 0.91440 -0.01909582
0.02575103 0.91440 -0.01868123
0.02437732 0.91440 -0.01824600
0.02300222 0.91440 -0.01779081
0.02163640 0.91440 -0.01732495
0.02026848 0.91440 -0.01682916
0.01891982 0.91440 -0.01632201
0.01756976 0.91440 -0.01579490
0.01622828 0.91440 -0.01524714
0.01490467 0.91440 -0.01466806
0.01358963 0.91440 -0.01406833
0.01229245 0.91440 -0.01343728
0.01100315 0.91440 -0.01277561
0.00974099 0.91440 -0.01207194
0.00850597 0.91440 -0.01132627
0.00728810 0.91440 -0.01053931
0.00615933 0.91440 -0.00973609
0.00514098 0.91440 -0.00893518
0.00423306 0.91440 -0.00813656
0.00343696 0.91440 -0.00736020
0.00274271 0.91440 -0.00660680
0.00213825 0.91440 -0.00584711
0.00161498 0.91440 -0.00510180
0.00117222 0.91440 -0.00436088
0.00080068 0.91440 -0.00363503
0.00051962 0.91440 -0.00291287
0.00028844 0.91440 -0.00218723
0.00012709 0.91440 -0.00145671
0.00003557 0.91440 -0.00072130
-0.00000468 0.91440 -0.00000236
0.53340162 0.91440 -0.00067545
0.53339793 0.91440 0.00066756
