#+++++++++++++++++++++++++++++++++++++++++++++++++++++++++++++++++++++++++++++++++++++++++++++++++++++++++++++++++++++++++++++++++
#
#   IPW-3 Cut/Slice DATA SUBMITTAL FORM for Test Case NACA0012_Cp_Conditions
#
#       NOMENCLATURE:
#                  X [m]:  X-coordinate of the surface (clean for reference)
#                  Y [m]:  Y-coordinate of the surface (clean for reference)
#                  Z [m]:  Z-coordinate of the surface (clean for reference)
#                  Cp [-]:  Pressure coefficient
#
#    FLOW CONDITIONS:
#                                   AOA: 4.0 deg
#                           Mach Number: 0.3114 [-]
#       Mean aerodynamic chord (M.A.C.): 0.5334 [m]
#                       Reynolds Number: 3.8441 million (based on MAC)
#                       Freestream Temp: 267.75 [K]
#                        Reference area: 0.97548 [m2]
#               Moment Reference Center: 0.13335, 0, 0 [m] (X, Y, Z)
#
#
#              NOTES: 1. Please use at least 5 decimal places in the numerical values
#                     2. If data are NOT provided, please fill data fields with a numerical value of "-999"
#
#+++++++++++++++++++++++++++++++++++++++++++++++++++++++++++++++++++++++++++++++++++++++++++++++++++++++++++++++++++++++++++++++++++
 VARIABLES = "X" "Y" "Z" "Cp"

 ZONE T="SLICE_Y_0p9144_CUTDATA"

0.02006212 0.91439998 -0.01674537 4.15057957e-01
0.02108001 0.91439998 -0.01711437 3.92055273e-01
0.02250433 0.91439998 -0.01761141 3.70661795e-01
0.02395228 0.91439998 -0.01809411 3.50703865e-01
0.02497555 0.91439998 -0.01842396 3.31913412e-01
0.02599463 0.91439998 -0.01874319 3.14457625e-01
0.02746889 0.91439998 -0.01918894 2.97913969e-01
0.02848377 0.91439998 -0.01948627 2.81788379e-01
0.02949907 0.91439998 -0.01977582 2.66217768e-01
0.03099049 0.91439998 -0.02018724 2.51531452e-01
0.03249850 0.91439998 -0.02058819 2.37403020e-01
0.03350895 0.91439998 -0.02084902 2.23776072e-01
0.03451401 0.91439998 -0.02110279 2.10965246e-01
0.03603631 0.91439998 -0.02147540 1.98718041e-01
0.03756715 0.91439998 -0.02183844 1.87221661e-01
0.03911092 0.91439998 -0.02219250 1.76530749e-01
0.04011127 0.91439998 -0.02241489 1.66110262e-01
0.04111072 0.91439998 -0.02263229 1.56295031e-01
0.04265975 0.91439998 -0.02296102 1.46776542e-01
0.04421823 0.91439998 -0.02328165 1.37664810e-01
0.04521118 0.91439998 -0.02348010 1.28633350e-01
0.04620145 0.91439998 -0.02367431 1.19955577e-01
0.04776466 0.91439998 -0.02397316 1.11481428e-01
0.04933394 0.91439998 -0.02426349 1.03319883e-01
0.05090836 0.91439998 -0.02454642 9.55094919e-02
0.05189395 0.91439998 -0.02471911 8.80071223e-02
0.05287411 0.91439998 -0.02488823 8.09953958e-02
0.05445395 0.91439998 -0.02515267 7.43229091e-02
0.05603806 0.91439998 -0.02541061 6.80778548e-02
0.05762677 0.91439998 -0.02566150 6.21568933e-02
0.05860128 0.91439998 -0.02581239 5.64180724e-02
0.05957404 0.91439998 -0.02595865 5.07626980e-02
0.06116452 0.91439998 -0.02619328 4.51915599e-02
0.06275896 0.91439998 -0.02642158 3.96762155e-02
0.06435714 0.91439998 -0.02664365 3.42313386e-02
0.06595887 0.91439998 -0.02685962 2.88953185e-02
0.06692390 0.91439998 -0.02698677 2.36667153e-02
0.06788660 0.91439998 -0.02711152 1.86467543e-02
0.06948889 0.91439998 -0.02731386 1.38652064e-02
0.07109431 0.91439998 -0.02751075 9.34422202e-03
0.07270298 0.91439998 -0.02770153 5.02970722e-03
0.07431444 0.91439998 -0.02788691 8.44110968e-04
0.07526907 0.91439998 -0.02799435 -3.26933525e-03
0.07622172 0.91439998 -0.02809965 -7.27809174e-03
0.07783297 0.91439998 -0.02827349 -1.10984584e-02
0.07944670 0.91439998 -0.02844253 -1.46631133e-02
0.08106293 0.91439998 -0.02860646 -1.79600157e-02
0.08268181 0.91439998 -0.02876511 -2.10394077e-02
0.08430272 0.91439998 -0.02891890 -2.39826944e-02
0.08524543 0.91439998 -0.02900653 -2.68748496e-02
0.08618634 0.91439998 -0.02909189 -2.97048464e-02
0.08780622 0.91439998 -0.02923580 -3.24962661e-02
0.08942841 0.91439998 -0.02937510 -3.52558307e-02
0.09105209 0.91439998 -0.02951041 -3.80378552e-02
0.09267743 0.91439998 -0.02964038 -4.08760086e-02
0.09430439 0.91439998 -0.02976658 -4.38209325e-02
0.09523735 0.91439998 -0.02983727 -4.68383282e-02
0.09616850 0.91439998 -0.02990599 -4.98014167e-02
0.09779436 0.91439998 -0.03002322 -5.25164604e-02
0.09942162 0.91439998 -0.03013665 -5.48299067e-02
0.10105059 0.91439998 -0.03024611 -5.66954128e-02
0.10268120 0.91439998 -0.03035168 -5.82006350e-02
0.10431243 0.91439998 -0.03045236 -5.95531650e-02
0.10594522 0.91439998 -0.03054988 -6.09701574e-02
0.10757963 0.91439998 -0.03064391 -6.26249015e-02
0.10849948 0.91439998 -0.03069562 -6.45131767e-02
0.10941781 0.91439998 -0.03074551 -6.65746629e-02
0.11105012 0.91439998 -0.03083246 -6.85775801e-02
0.11268456 0.91439998 -0.03091573 -7.03996941e-02
0.11431899 0.91439998 -0.03099470 -7.19231218e-02
0.11595465 0.91439998 -0.03107044 -7.31778592e-02
0.11759149 0.91439998 -0.03114301 -7.43005425e-02
0.11922923 0.91439998 -0.03121250 -7.54799545e-02
0.12086645 0.91439998 -0.03127867 -7.68691301e-02
0.12177550 0.91439998 -0.03131365 -7.84512311e-02
0.12268255 0.91439998 -0.03134750 -8.02150443e-02
0.12431926 0.91439998 -0.03140651 -8.19317996e-02
0.12595661 0.91439998 -0.03146299 -8.34703371e-02
0.12759566 0.91439998 -0.03151647 -8.46945643e-02
0.12923455 0.91439998 -0.03156674 -8.55376050e-02
0.13087426 0.91439998 -0.03161393 -8.60437900e-02
0.13251490 0.91439998 -0.03165822 -8.63393247e-02
0.13415551 0.91439998 -0.03169950 -8.66012424e-02
0.13579719 0.91439998 -0.03173791 -8.70101452e-02
0.13743981 0.91439998 -0.03177394 -8.77133235e-02
0.13908315 0.91439998 -0.03180753 -8.87711346e-02
0.13997675 0.91439998 -0.03182406 -9.00938138e-02
0.14087035 0.91439998 -0.03184057 -9.15712863e-02
0.14251101 0.91439998 -0.03186761 -9.29476693e-02
0.14415237 0.91439998 -0.03189238 -9.40718949e-02
0.14579440 0.91439998 -0.03191492 -9.48138684e-02
0.14743738 0.91439998 -0.03193406 -9.51430872e-02
0.14908038 0.91439998 -0.03195078 -9.51213166e-02
0.15072398 0.91439998 -0.03196541 -9.48907956e-02
0.15236761 0.91439998 -0.03197730 -9.46333855e-02
0.15401191 0.91439998 -0.03198688 -9.45392400e-02
0.15565685 0.91439998 -0.03199461 -9.47756395e-02
0.15730099 0.91439998 -0.03200013 -9.54446793e-02
0.15894700 0.91439998 -0.03200181 -9.65355486e-02
0.15982738 0.91439998 -0.03200252 -9.79000405e-02
0.16070651 0.91439998 -0.03200179 -9.93259773e-02
0.16234975 0.91439998 -0.03200017 -1.00530282e-01
0.16399461 0.91439998 -0.03199542 -1.01330802e-01
0.16563854 0.91439998 -0.03198866 -1.01637900e-01
0.16728290 0.91439998 -0.03198018 -1.01497240e-01
0.16892816 0.91439998 -0.03196878 -1.01043418e-01
0.17057311 0.91439998 -0.03195533 -1.00436531e-01
0.17221848 0.91439998 -0.03194033 -9.98063237e-02
0.17386405 0.91439998 -0.03192309 -9.92200747e-02
0.17550993 0.91439998 -0.03190345 -9.86884683e-02
0.17715603 0.91439998 -0.03188210 -9.81905088e-02
0.17880189 0.91439998 -0.03185850 -9.77144390e-02
0.18044851 0.91439998 -0.03183307 -9.72933024e-02
0.18209546 0.91439998 -0.03180618 -9.70145017e-02
0.18374153 0.91439998 -0.03177636 -9.70027596e-02
0.18538886 0.91439998 -0.03174497 -9.73680988e-02
0.18703504 0.91439998 -0.03171207 -9.81368124e-02
0.18789913 0.91439998 -0.03169366 -9.91829708e-02
0.18876211 0.91439998 -0.03167517 -1.00329220e-01
0.19040671 0.91439998 -0.03163832 -1.01287916e-01
0.19205306 0.91439998 -0.03159940 -1.01877287e-01
0.19369853 0.91439998 -0.03155844 -1.01993136e-01
0.19534400 0.91439998 -0.03151632 -1.01664692e-01
0.19699043 0.91439998 -0.03147211 -1.01018973e-01
0.19863633 0.91439998 -0.03142627 -1.00220420e-01
0.20028228 0.91439998 -0.03137943 -9.94114503e-02
0.20192879 0.91439998 -0.03133005 -9.86785442e-02
0.20357496 0.91439998 -0.03127917 -9.80530158e-02
0.20522150 0.91439998 -0.03122692 -9.75216925e-02
0.20686788 0.91439998 -0.03117207 -9.70550403e-02
0.20851442 0.91439998 -0.03111631 -9.66189429e-02
0.21016096 0.91439998 -0.03105901 -9.61880535e-02
0.21180766 0.91439998 -0.03099982 -9.57508460e-02
0.21345451 0.91439998 -0.03093960 -9.53040719e-02
0.21510105 0.91439998 -0.03087674 -9.48507115e-02
0.21674792 0.91439998 -0.03081300 -9.43976492e-02
0.21839444 0.91439998 -0.03074802 -9.39450860e-02
0.22004151 0.91439998 -0.03068094 -9.34901386e-02
0.22168854 0.91439998 -0.03061299 -9.30191129e-02
0.22333499 0.91439998 -0.03054319 -9.25115570e-02
0.22498225 0.91439998 -0.03047215 -9.19451267e-02
0.22662866 0.91439998 -0.03039965 -9.12947729e-02
0.22827595 0.91439998 -0.03032506 -9.05556008e-02
0.22992312 0.91439998 -0.03024968 -8.97520482e-02
0.23156943 0.91439998 -0.03017247 -8.89603794e-02
0.23321658 0.91439998 -0.03009439 -8.83139521e-02
0.23486284 0.91439998 -0.03001518 -8.79687816e-02
0.23651027 0.91439998 -0.02993400 -8.80549327e-02
0.23815745 0.91439998 -0.02985205 -8.85990635e-02
0.23899611 0.91439998 -0.02980934 -8.94574597e-02
0.23983475 0.91439998 -0.02976663 -9.04245451e-02
0.24147965 0.91439998 -0.02968199 -9.11715180e-02
0.24312569 0.91439998 -0.02959560 -9.14779603e-02
0.24477082 0.91439998 -0.02950801 -9.12150070e-02
0.24641679 0.91439998 -0.02941964 -9.04059261e-02
0.24806190 0.91439998 -0.02932954 -8.92467350e-02
0.24970679 0.91439998 -0.02923883 -8.79046544e-02
0.25135259 0.91439998 -0.02914599 -8.65726769e-02
0.25299763 0.91439998 -0.02905232 -8.53800848e-02
0.25464333 0.91439998 -0.02895754 -8.43726993e-02
0.25628834 0.91439998 -0.02886145 -8.35391357e-02
0.25793394 0.91439998 -0.02876475 -8.28305706e-02
0.25957885 0.91439998 -0.02866626 -8.21948647e-02
0.26122360 0.91439998 -0.02856721 -8.15864727e-02
0.26286901 0.91439998 -0.02846614 -8.09758007e-02
0.26451383 0.91439998 -0.02836429 -8.03534836e-02
0.26615912 0.91439998 -0.02826135 -7.97174275e-02
0.26780381 0.91439998 -0.02815718 -7.90740550e-02
0.26944902 0.91439998 -0.02805235 -7.84249976e-02
0.27109361 0.91439998 -0.02794589 -7.77725354e-02
0.27273820 0.91439998 -0.02783903 -7.71136209e-02
0.27438318 0.91439998 -0.02773052 -7.64453188e-02
0.27602764 0.91439998 -0.02762143 -7.57700428e-02
0.27767249 0.91439998 -0.02751103 -7.50889629e-02
0.27931669 0.91439998 -0.02739941 -7.44086951e-02
0.28096138 0.91439998 -0.02728665 -7.37293065e-02
0.28260570 0.91439998 -0.02717296 -7.30515346e-02
0.28425029 0.91439998 -0.02705888 -7.23683983e-02
0.28589436 0.91439998 -0.02694320 -7.16740638e-02
0.28753824 0.91439998 -0.02682712 -7.09619895e-02
0.28918255 0.91439998 -0.02670888 -7.02296495e-02
0.29082653 0.91439998 -0.02659031 -6.94847107e-02
0.29247075 0.91439998 -0.02647087 -6.87361285e-02
0.29411443 0.91439998 -0.02635059 -6.79971874e-02
0.29575852 0.91439998 -0.02622929 -6.72741607e-02
0.29740205 0.91439998 -0.02610690 -6.65718242e-02
0.29904599 0.91439998 -0.02598384 -6.58841282e-02
0.30068935 0.91439998 -0.02585940 -6.52036741e-02
0.30233313 0.91439998 -0.02573458 -6.45162091e-02
0.30397647 0.91439998 -0.02560856 -6.38119653e-02
0.30561949 0.91439998 -0.02548225 -6.30832314e-02
0.30726300 0.91439998 -0.02535388 -6.23266809e-02
0.30890606 0.91439998 -0.02522521 -6.15494773e-02
0.31054945 0.91439998 -0.02509557 -6.07597306e-02
0.31219222 0.91439998 -0.02496529 -5.99705614e-02
0.31383546 0.91439998 -0.02483394 -5.91893382e-02
0.31547801 0.91439998 -0.02470169 -5.84231094e-02
0.31712109 0.91439998 -0.02456855 -5.76680042e-02
0.31876364 0.91439998 -0.02443466 -5.69172390e-02
0.32040661 0.91439998 -0.02430032 -5.61560467e-02
0.32204876 0.91439998 -0.02416465 -5.53738959e-02
0.32369155 0.91439998 -0.02402855 -5.45659028e-02
0.32533348 0.91439998 -0.02389092 -5.37479147e-02
0.32697558 0.91439998 -0.02375309 -5.29491603e-02
0.32861810 0.91439998 -0.02361405 -5.22056818e-02
0.33025977 0.91439998 -0.02347487 -5.15416004e-02
0.33190211 0.91439998 -0.02333410 -5.09450547e-02
0.33354380 0.91439998 -0.02319310 -5.03701754e-02
0.33437840 0.91439998 -0.02312095 -4.97757718e-02
0.33521302 0.91439998 -0.02304879 -4.90556136e-02
0.33685623 0.91439998 -0.02290593 -4.82049510e-02
0.33849821 0.91439998 -0.02276167 -4.71917354e-02
0.34014043 0.91439998 -0.02261711 -4.60678413e-02
0.34178233 0.91439998 -0.02247222 -4.49028499e-02
0.34342485 0.91439998 -0.02232635 -4.37635519e-02
0.34506657 0.91439998 -0.02217971 -4.26866524e-02
0.34670881 0.91439998 -0.02203195 -4.16878834e-02
0.34835035 0.91439998 -0.02188357 -4.07570526e-02
0.34999215 0.91439998 -0.02173435 -3.98807824e-02
0.35163355 0.91439998 -0.02158481 -3.90410498e-02
0.35327521 0.91439998 -0.02143430 -3.82265598e-02
0.35491646 0.91439998 -0.02128354 -3.74253988e-02
0.35655797 0.91439998 -0.02113131 -3.66310924e-02
0.35819904 0.91439998 -0.02097883 -3.58328000e-02
0.35984021 0.91439998 -0.02082525 -3.50240320e-02
0.36148114 0.91439998 -0.02067158 -3.41946334e-02
0.36312214 0.91439998 -0.02051624 -3.33395489e-02
0.36476294 0.91439998 -0.02036085 -3.24522443e-02
0.36640358 0.91439998 -0.02020474 -3.15320939e-02
0.36804433 0.91439998 -0.02004847 -3.05846985e-02
0.36968470 0.91439998 -0.01989022 -2.96133980e-02
0.37132506 0.91439998 -0.01973188 -2.86286902e-02
0.37296532 0.91439998 -0.01957287 -2.76370775e-02
0.37460550 0.91439998 -0.01941359 -2.66464260e-02
0.37624558 0.91439998 -0.01925290 -2.56576948e-02
0.37788542 0.91439998 -0.01909187 -2.46752240e-02
0.37952526 0.91439998 -0.01892947 -2.36956365e-02
0.38116500 0.91439998 -0.01876692 -2.27173362e-02
0.38280477 0.91439998 -0.01860385 -2.17322353e-02
0.38444408 0.91439998 -0.01844036 -2.07330249e-02
0.38608364 0.91439998 -0.01827554 -1.97100136e-02
0.38772281 0.91439998 -0.01811041 -1.86683014e-02
0.38936219 0.91439998 -0.01794439 -1.76245514e-02
0.39100109 0.91439998 -0.01777803 -1.66144539e-02
0.39264029 0.91439998 -0.01761077 -1.56739429e-02
0.39427877 0.91439998 -0.01744302 -1.48274144e-02
0.39591777 0.91439998 -0.01727413 -1.40601760e-02
0.39755637 0.91439998 -0.01710500 -1.33217918e-02
0.39840314 0.91439998 -0.01701733 -1.25662461e-02
0.39924991 0.91439998 -0.01692966 -1.16759809e-02
0.40088952 0.91439998 -0.01675922 -1.06395120e-02
0.40252817 0.91439998 -0.01658787 -9.41693690e-03
0.40416739 0.91439998 -0.01641575 -8.06024578e-03
0.40580580 0.91439998 -0.01624274 -6.63989829e-03
0.40744442 0.91439998 -0.01606936 -5.23024751e-03
0.40908275 0.91439998 -0.01589556 -3.87583277e-03
0.41072131 0.91439998 -0.01572122 -2.59396457e-03
0.41235943 0.91439998 -0.01554620 -1.37162476e-03
0.41399777 0.91439998 -0.01537043 -1.88711434e-04
0.41563565 0.91439998 -0.01519371 9.83268372e-04
0.41727361 0.91439998 -0.01501644 2.16033705e-03
0.41891132 0.91439998 -0.01483846 3.35607212e-03
0.42054899 0.91439998 -0.01465998 4.57165530e-03
0.42218649 0.91439998 -0.01448080 5.80908917e-03
0.42382386 0.91439998 -0.01430094 7.06399325e-03
0.42546112 0.91439998 -0.01412007 8.34021158e-03
0.42709824 0.91439998 -0.01393889 9.63731576e-03
0.42873536 0.91439998 -0.01375721 1.09582683e-02
0.43037208 0.91439998 -0.01357492 1.22951316e-02
0.43200896 0.91439998 -0.01339156 1.36344377e-02
0.43364542 0.91439998 -0.01320779 1.49442358e-02
0.43528210 0.91439998 -0.01302319 1.61955226e-02
0.43691827 0.91439998 -0.01283821 1.73681583e-02
0.43855477 0.91439998 -0.01265237 1.84783488e-02
0.44019061 0.91439998 -0.01246619 1.95734594e-02
0.44104481 0.91439998 -0.01236849 2.06956230e-02
0.44189904 0.91439998 -0.01227080 2.19591223e-02
0.44353600 0.91439998 -0.01208300 2.33715456e-02
0.44517202 0.91439998 -0.01189416 2.49769334e-02
0.44680829 0.91439998 -0.01170505 2.67280023e-02
0.44844417 0.91439998 -0.01151546 2.85591986e-02
0.45008049 0.91439998 -0.01132531 3.04021109e-02
0.45171609 0.91439998 -0.01113390 3.22215892e-02
0.45335184 0.91439998 -0.01094216 3.40000093e-02
0.45498724 0.91439998 -0.01074953 3.57504264e-02
0.45662271 0.91439998 -0.01055661 3.74895632e-02
0.45825786 0.91439998 -0.01036271 3.92442755e-02
0.45989297 0.91439998 -0.01016851 4.10299636e-02
0.46152786 0.91439998 -0.00997285 4.28661704e-02
0.46316255 0.91439998 -0.00977704 4.47535180e-02
0.46479723 0.91439998 -0.00958012 4.66884077e-02
0.46643160 0.91439998 -0.00938311 4.86434288e-02
0.46806607 0.91439998 -0.00918492 5.05855270e-02
0.46970006 0.91439998 -0.00898672 5.24707921e-02
0.47133429 0.91439998 -0.00878721 5.42796180e-02
0.47296793 0.91439998 -0.00858776 5.60178980e-02
0.47460194 0.91439998 -0.00838693 5.77411801e-02
0.47546183 0.91439998 -0.00828125 5.94891645e-02
0.47632257 0.91439998 -0.00817544 6.13852888e-02
0.47795626 0.91439998 -0.00797287 6.34554550e-02
0.47958991 0.91439998 -0.00777031 6.57490939e-02
0.48122383 0.91439998 -0.00756643 6.82297200e-02
0.48285731 0.91439998 -0.00736255 7.08431899e-02
0.48449090 0.91439998 -0.00715693 7.35229850e-02
0.48612401 0.91439998 -0.00695121 7.62394518e-02
0.48775707 0.91439998 -0.00674439 7.89732188e-02
0.48938997 0.91439998 -0.00653742 8.17372948e-02
0.49102267 0.91439998 -0.00632939 8.45387727e-02
0.49265530 0.91439998 -0.00612112 8.73906240e-02
0.49428759 0.91439998 -0.00591183 9.02793333e-02
0.49592001 0.91439998 -0.00570219 9.31922942e-02
0.49755171 0.91439998 -0.00549132 9.61000696e-02
0.49918375 0.91439998 -0.00527984 9.90058854e-02
0.50081495 0.91439998 -0.00506731 1.01924300e-01
0.50244666 0.91439998 -0.00485406 1.04925074e-01
0.50331164 0.91439998 -0.00474091 1.08021550e-01
0.50417701 0.91439998 -0.00462733 1.11374654e-01
0.50580851 0.91439998 -0.00441320 1.14981070e-01
0.50744075 0.91439998 -0.00419759 1.18920840e-01
0.50907179 0.91439998 -0.00398115 1.23193674e-01
0.51070304 0.91439998 -0.00376422 1.27750665e-01
0.51233396 0.91439998 -0.00354689 1.32572830e-01
0.51396498 0.91439998 -0.00332846 1.37656480e-01
0.51559544 0.91439998 -0.00310884 1.43075615e-01
0.51722581 0.91439998 -0.00288868 1.48898169e-01
0.51885599 0.91439998 -0.00266770 1.55214265e-01
0.52048591 0.91439998 -0.00244627 1.62024215e-01
0.52211576 0.91439998 -0.00222389 1.69230014e-01
0.52374510 0.91439998 -0.00200105 1.76521122e-01
0.52537458 0.91439998 -0.00177678 1.83437035e-01
0.52700326 0.91439998 -0.00155223 1.89329639e-01
0.52863244 0.91439998 -0.00132614 1.93572000e-01
0.52950250 0.91439998 -0.00120539 1.96261868e-01
0.53037325 0.91439998 -0.00108424 1.96408391e-01
0.53200209 0.91439998 -0.00085674 1.94687411e-01
0.53269582 0.91439998 0.00078077 1.92711502e-01
0.53172810 0.91439998 0.00091593 1.90350115e-01
0.53013079 0.91439998 0.00113904 1.86363027e-01
0.52853315 0.91439998 0.00136085 1.80566415e-01
0.52693534 0.91439998 0.00158259 1.73524991e-01
0.52596810 0.91439998 0.00171602 1.65891245e-01
0.52500136 0.91439998 0.00184907 1.58109590e-01
0.52340295 0.91439998 0.00206907 1.50534660e-01
0.52180437 0.91439998 0.00228730 1.43329248e-01
0.52020532 0.91439998 0.00250549 1.36526108e-01
0.51860556 0.91439998 0.00272258 1.30133197e-01
0.51763987 0.91439998 0.00285348 1.24010600e-01
0.51667417 0.91439998 0.00298438 1.18171982e-01
0.51507470 0.91439998 0.00319991 1.12493232e-01
0.51347470 0.91439998 0.00341544 1.06988281e-01
0.51187399 0.91439998 0.00362911 1.01658158e-01
0.51027318 0.91439998 0.00384242 9.64708030e-02
0.50930863 0.91439998 0.00397065 9.14008543e-02
0.50834434 0.91439998 0.00409861 8.64493325e-02
0.50674323 0.91439998 0.00431108 8.15661699e-02
0.50514190 0.91439998 0.00452162 7.67818168e-02
0.50354006 0.91439998 0.00473186 7.20807314e-02
0.50193778 0.91439998 0.00494150 6.74960688e-02
0.50097446 0.91439998 0.00506739 6.30014390e-02
0.50001121 0.91439998 0.00519328 5.86425215e-02
0.49840920 0.91439998 0.00540114 5.43901324e-02
0.49680649 0.91439998 0.00560882 5.02558723e-02
0.49520318 0.91439998 0.00581518 4.62424457e-02
0.49359985 0.91439998 0.00602109 4.23064455e-02
0.49263765 0.91439998 0.00614429 3.84217203e-02
0.49167599 0.91439998 0.00626698 3.45217586e-02
0.49007221 0.91439998 0.00647157 3.05820722e-02
0.48846829 0.91439998 0.00667517 2.66066380e-02
0.48686409 0.91439998 0.00687851 2.26223692e-02
0.48525929 0.91439998 0.00708107 1.86920240e-02
0.48429844 0.91439998 0.00720211 1.48172947e-02
0.48333758 0.91439998 0.00732315 1.10395560e-02
0.48173315 0.91439998 0.00752378 7.32805813e-03
0.48012797 0.91439998 0.00772413 3.68084805e-03
0.47852242 0.91439998 0.00792360 1.03589300e-04
0.47691682 0.91439998 0.00812268 -3.41500179e-03
0.47595697 0.91439998 0.00824132 -6.88144239e-03
0.47499768 0.91439998 0.00835922 -1.03146024e-02
0.47339153 0.91439998 0.00855663 -1.37382140e-02
0.47178530 0.91439998 0.00875307 -1.71468854e-02
0.47017874 0.91439998 0.00894921 -2.05431338e-02
0.46857160 0.91439998 0.00914454 -2.39031613e-02
0.46761321 0.91439998 0.00926076 -2.72362214e-02
0.46665478 0.91439998 0.00937698 -3.05235684e-02
0.46504802 0.91439998 0.00957083 -3.37726139e-02
0.46344067 0.91439998 0.00976447 -3.69713008e-02
0.46183303 0.91439998 0.00995725 -4.00937535e-02
0.46022529 0.91439998 0.01014967 -4.31341901e-02
0.45926781 0.91439998 0.01026388 -4.61027138e-02
0.45831080 0.91439998 0.01037737 -4.90255021e-02
0.45670249 0.91439998 0.01056808 -5.19492626e-02
0.45509425 0.91439998 0.01075786 -5.48801757e-02
0.45348555 0.91439998 0.01094734 -5.78232668e-02
0.45187646 0.91439998 0.01113605 -6.07505329e-02
0.45026742 0.91439998 0.01132436 -6.36574104e-02
0.44931112 0.91439998 0.01143591 -6.65408894e-02
0.44835553 0.91439998 0.01154666 -6.94570094e-02
0.44674596 0.91439998 0.01173320 -7.24269077e-02
0.44513628 0.91439998 0.01191921 -7.54590407e-02
0.44352646 0.91439998 0.01210504 -7.85259605e-02
0.44191585 0.91439998 0.01228981 -8.15699697e-02
0.44096111 0.91439998 0.01239900 -8.45817402e-02
0.44000635 0.91439998 0.01250819 -8.75190422e-02
0.43839621 0.91439998 0.01269130 -9.04004723e-02
0.43678549 0.91439998 0.01287421 -9.32164937e-02
0.43517453 0.91439998 0.01305625 -9.59569290e-02
0.43356345 0.91439998 0.01323796 -9.86287817e-02
0.43260963 0.91439998 0.01334520 -1.01247452e-01
0.43165616 0.91439998 0.01345201 -1.03854395e-01
0.43004471 0.91439998 0.01363252 -1.06497802e-01
0.42843333 0.91439998 0.01381165 -1.09195210e-01
0.42682140 0.91439998 0.01399054 -1.11943848e-01
0.42520924 0.91439998 0.01416882 -1.14693142e-01
0.42359707 0.91439998 0.01434692 -1.17399879e-01
0.42264438 0.91439998 0.01445162 -1.20050468e-01
0.42169232 0.91439998 0.01455580 -1.22653633e-01
0.42007966 0.91439998 0.01473226 -1.25256226e-01
0.41846696 0.91439998 0.01490768 -1.27868623e-01
0.41685396 0.91439998 0.01508298 -1.30500302e-01
0.41524047 0.91439998 0.01525728 -1.33126974e-01
0.41362711 0.91439998 0.01543135 -1.35740951e-01
0.41267569 0.91439998 0.01553334 -1.38335332e-01
0.41172507 0.91439998 0.01563490 -1.40949369e-01
0.41011123 0.91439998 0.01580732 -1.43593639e-01
0.40849723 0.91439998 0.01597860 -1.46259069e-01
0.40688306 0.91439998 0.01614984 -1.48912877e-01
0.40526851 0.91439998 0.01632040 -1.51504010e-01
0.40431858 0.91439998 0.01642071 -1.54034972e-01
0.40336934 0.91439998 0.01652083 -1.56505749e-01
0.40175450 0.91439998 0.01668970 -1.58991948e-01
0.40013978 0.91439998 0.01685846 -1.61511034e-01
0.39852445 0.91439998 0.01702569 -1.64078623e-01
0.39690894 0.91439998 0.01719292 -1.66659221e-01
0.39529340 0.91439998 0.01735940 -1.69214174e-01
0.39434490 0.91439998 0.01745714 -1.71729386e-01
0.39339700 0.91439998 0.01755449 -1.74188256e-01
0.39178099 0.91439998 0.01771937 -1.76635832e-01
0.39016504 0.91439998 0.01788401 -1.79066479e-01
0.38854873 0.91439998 0.01804769 -1.81492329e-01
0.38693202 0.91439998 0.01821118 -1.83879986e-01
0.38531538 0.91439998 0.01837370 -1.86230153e-01
0.38436831 0.91439998 0.01846891 -1.88555479e-01
0.38342180 0.91439998 0.01856343 -1.90909892e-01
0.38180468 0.91439998 0.01872423 -1.93341225e-01
0.38018755 0.91439998 0.01888481 -1.95858747e-01
0.37857026 0.91439998 0.01904498 -1.98425457e-01
0.37695236 0.91439998 0.01920457 -2.00968221e-01
0.37533462 0.91439998 0.01936308 -2.03450233e-01
0.37438899 0.91439998 0.01945573 -2.05873132e-01
0.37344385 0.91439998 0.01954740 -2.08273470e-01
0.37182565 0.91439998 0.01970428 -2.10723251e-01
0.37020744 0.91439998 0.01986072 -2.13234007e-01
0.36858906 0.91439998 0.02001685 -2.15786234e-01
0.36696984 0.91439998 0.02017179 -2.18319446e-01
0.36535089 0.91439998 0.02032583 -2.20809206e-01
0.36440684 0.91439998 0.02041551 -2.23252878e-01
0.36346311 0.91439998 0.02050488 -2.25701377e-01
0.36184397 0.91439998 0.02065821 -2.28202745e-01
0.36022472 0.91439998 0.02081017 -2.30765611e-01
0.35860516 0.91439998 0.02096184 -2.33363002e-01
0.35698510 0.91439998 0.02111254 -2.35921055e-01
0.35536524 0.91439998 0.02126305 -2.38399878e-01
0.35442237 0.91439998 0.02134985 -2.40801811e-01
0.35348031 0.91439998 0.02143639 -2.43178308e-01
0.35186021 0.91439998 0.02158508 -2.45588571e-01
0.35023959 0.91439998 0.02173273 -2.48057798e-01
0.34861883 0.91439998 0.02188023 -2.50555366e-01
0.34699789 0.91439998 0.02202674 -2.53037959e-01
0.34537618 0.91439998 0.02217298 -2.55464107e-01
0.34443560 0.91439998 0.02225699 -2.57855266e-01
0.34349502 0.91439998 0.02234100 -2.60278344e-01
0.34187402 0.91439998 0.02248505 -2.62793988e-01
0.34025226 0.91439998 0.02262817 -2.65451908e-01
0.33863042 0.91439998 0.02277098 -2.68213034e-01
0.33700848 0.91439998 0.02291348 -2.71002948e-01
0.33538552 0.91439998 0.02305480 -2.73736537e-01
0.33444667 0.91439998 0.02313598 -2.76410580e-01
0.33350779 0.91439998 0.02321715 -2.79017448e-01
0.33188557 0.91439998 0.02335644 -2.81620115e-01
0.33026279 0.91439998 0.02349553 -2.84237504e-01
0.32863983 0.91439998 0.02363314 -2.86852509e-01
0.32701667 0.91439998 0.02377054 -2.89429188e-01
0.32539298 0.91439998 0.02390685 -2.91916490e-01
0.32445565 0.91439998 0.02398552 -2.94329017e-01
0.32351912 0.91439998 0.02406377 -2.96693921e-01
0.32189526 0.91439998 0.02419830 -2.99117655e-01
0.32027168 0.91439998 0.02433228 -3.01651031e-01
0.31864738 0.91439998 0.02446509 -3.04324359e-01
0.31702292 0.91439998 0.02459743 -3.07087511e-01
0.31539837 0.91439998 0.02472907 -3.09861362e-01
0.31377301 0.91439998 0.02485986 -3.12558055e-01
0.31283808 0.91439998 0.02493459 -3.15176636e-01
0.31190314 0.91439998 0.02500932 -3.17712009e-01
0.31027856 0.91439998 0.02513787 -3.20242763e-01
0.30865320 0.91439998 0.02526609 -3.22804421e-01
0.30702775 0.91439998 0.02539318 -3.25398445e-01
0.30540173 0.91439998 0.02552014 -3.27990532e-01
0.30377557 0.91439998 0.02564490 -3.30539435e-01
0.30214882 0.91439998 0.02576951 -3.33012104e-01
0.30121636 0.91439998 0.02584032 -3.35439295e-01
0.30028388 0.91439998 0.02591112 -3.37905437e-01
0.29865783 0.91439998 0.02603383 -3.40479881e-01
0.29703101 0.91439998 0.02615560 -3.43219817e-01
0.29540403 0.91439998 0.02627637 -3.46076816e-01
0.29377685 0.91439998 0.02639643 -3.48964512e-01
0.29214893 0.91439998 0.02651518 -3.51764739e-01
0.29052134 0.91439998 0.02663341 -3.54433596e-01
0.28959082 0.91439998 0.02670045 -3.56993556e-01
0.28866085 0.91439998 0.02676732 -3.59547466e-01
0.28703353 0.91439998 0.02688387 -3.62208188e-01
0.28540518 0.91439998 0.02699858 -3.65062803e-01
0.28377671 0.91439998 0.02711266 -3.68090302e-01
0.28214797 0.91439998 0.02722563 -3.71212661e-01
0.28051877 0.91439998 0.02733792 -3.74294758e-01
0.27888979 0.91439998 0.02744960 -3.77245456e-01
0.27796183 0.91439998 0.02751253 -3.80059004e-01
0.27703490 0.91439998 0.02757475 -3.82768571e-01
0.27540591 0.91439998 0.02768399 -3.85491967e-01
0.27377603 0.91439998 0.02779150 -3.88294309e-01
0.27214612 0.91439998 0.02789856 -3.91193956e-01
0.27051591 0.91439998 0.02800428 -3.94158304e-01
0.26888510 0.91439998 0.02810920 -3.97089452e-01
0.26725451 0.91439998 0.02821311 -3.99918795e-01
0.26632979 0.91439998 0.02827161 -4.02637809e-01
0.26540577 0.91439998 0.02832941 -4.05281633e-01
0.26377541 0.91439998 0.02843140 -4.07965898e-01
0.26214409 0.91439998 0.02853160 -4.10777181e-01
0.26051285 0.91439998 0.02863122 -4.13755208e-01
0.25888107 0.91439998 0.02872900 -4.16872978e-01
0.25724885 0.91439998 0.02882594 -4.20049638e-01
0.25561670 0.91439998 0.02892184 -4.23183978e-01
0.25398359 0.91439998 0.02901647 -4.26181793e-01
0.25306284 0.91439998 0.02906949 -4.29064870e-01
0.25214284 0.91439998 0.02912233 -4.31858301e-01
0.25050997 0.91439998 0.02921444 -4.34706688e-01
0.24887749 0.91439998 0.02930572 -4.37675685e-01
0.24724416 0.91439998 0.02939534 -4.40828621e-01
0.24561060 0.91439998 0.02948385 -4.44125414e-01
0.24397695 0.91439998 0.02957156 -4.47483927e-01
0.24234253 0.91439998 0.02965763 -4.50777024e-01
0.24070734 0.91439998 0.02974312 -4.53927815e-01
0.23979101 0.91439998 0.02978979 -4.56960976e-01
0.23887466 0.91439998 0.02983645 -4.59908575e-01
0.23724075 0.91439998 0.02991861 -4.62899357e-01
0.23560596 0.91439998 0.02999988 -4.66020107e-01
0.23397122 0.91439998 0.03007901 -4.69301939e-01
0.23233587 0.91439998 0.03015746 -4.72720951e-01
0.23070031 0.91439998 0.03023416 -4.76181626e-01
0.22906411 0.91439998 0.03031002 -4.79548991e-01
0.22742823 0.91439998 0.03038468 -4.82749164e-01
0.22651550 0.91439998 0.03042556 -4.85789657e-01
0.22560383 0.91439998 0.03046570 -4.88724261e-01
0.22396847 0.91439998 0.03053726 -4.91696596e-01
0.22233173 0.91439998 0.03060665 -4.94818449e-01
0.22069525 0.91439998 0.03067499 -4.98157471e-01
0.21905821 0.91439998 0.03074230 -5.01730621e-01
0.21742084 0.91439998 0.03080737 -5.05445957e-01
0.21578295 0.91439998 0.03087164 -5.09184361e-01
0.21414519 0.91439998 0.03093416 -5.12817919e-01
0.21250624 0.91439998 0.03099526 -5.16244829e-01
0.21159978 0.91439998 0.03102833 -5.19512713e-01
0.21069331 0.91439998 0.03106140 -5.22639692e-01
0.20905608 0.91439998 0.03111839 -5.25773883e-01
0.20741810 0.91439998 0.03117459 -5.29010653e-01
0.20577923 0.91439998 0.03122942 -5.32447994e-01
0.20414050 0.91439998 0.03128215 -5.36105871e-01
0.20250113 0.91439998 0.03133381 -5.39961815e-01
0.20086153 0.91439998 0.03138298 -5.43937862e-01
0.19922119 0.91439998 0.03143068 -5.47895849e-01
0.19758121 0.91439998 0.03147700 -5.51742792e-01
0.19594018 0.91439998 0.03152123 -5.55392325e-01
0.19504052 0.91439998 0.03154539 -5.58893681e-01
0.19414223 0.91439998 0.03156825 -5.62259555e-01
0.19250160 0.91439998 0.03160937 -5.65654576e-01
0.19086159 0.91439998 0.03164850 -5.69143832e-01
0.18922134 0.91439998 0.03168626 -5.72818994e-01
0.18758002 0.91439998 0.03172143 -5.76733172e-01
0.18593869 0.91439998 0.03175491 -5.80840766e-01
0.18429684 0.91439998 0.03178723 -5.85063994e-01
0.18265492 0.91439998 0.03181697 -5.89293480e-01
0.18101218 0.91439998 0.03184484 -5.93372762e-01