#+++++++++++++++++++++++++++++++++++++++++++++++++++++++++++++++++++++++++++++++++++++++++++++++++++++++++++++++++++++++++++++++++
#
#   IPW-3 Cut/Slice DATA SUBMITTAL FORM for Test Case NACA0012_Cp_Conditions
#
#       NOMENCLATURE:
#                  X [m]:  X-coordinate of the surface (clean for reference)
#                  Y [m]:  Y-coordinate of the surface (clean for reference)
#                  Z [m]:  Z-coordinate of the surface (clean for reference)
#                  Cp [-]:  Pressure coefficient
#
#    FLOW CONDITIONS:
#                                   AOA: 4.0 deg
#                           Mach Number: 0.3114 [-]
#       Mean aerodynamic chord (M.A.C.): 0.5334 [m]
#                       Reynolds Number: 3.8441 million (based on MAC)
#                       Freestream Temp: 267.75 [K]
#                        Reference area: 0.97548 [m2]
#               Moment Reference Center: 0.13335, 0, 0 [m] (X, Y, Z)
#
#
#              NOTES: 1. Please use at least 5 decimal places in the numerical values
#                     2. If data are NOT provided, please fill data fields with a numerical value of "-999"
#
#+++++++++++++++++++++++++++++++++++++++++++++++++++++++++++++++++++++++++++++++++++++++++++++++++++++++++++++++++++++++++++++++++++
 VARIABLES = "X" "Y" "Z" "Cp"

ZONE T="SLICE_Y_0p9144_CUTDATA"
0.01990277 0.50000000 -0.01668625 4.15309608e-01
0.02041413 0.50000000 -0.01687598 4.03939605e-01
0.02112343 0.50000000 -0.01712992 3.92856151e-01
0.02163550 0.50000000 -0.01731058 3.81759346e-01
0.02214658 0.50000000 -0.01748881 3.70623887e-01
0.02286456 0.50000000 -0.01773322 3.59852880e-01
0.02337459 0.50000000 -0.01790465 3.49295139e-01
0.02388499 0.50000000 -0.01807204 3.39088589e-01
0.02461091 0.50000000 -0.01830733 3.29523414e-01
0.02534250 0.50000000 -0.01854074 3.20689201e-01
0.02585200 0.50000000 -0.01869891 3.12266797e-01
0.02635987 0.50000000 -0.01885614 3.04585636e-01
0.02709807 0.50000000 -0.01907816 2.97081351e-01
0.02783970 0.50000000 -0.01929770 2.89953053e-01
0.02834801 0.50000000 -0.01944678 2.82864332e-01
0.02885640 0.50000000 -0.01959254 2.75856346e-01
0.02960294 0.50000000 -0.01980493 2.68778562e-01
0.03010989 0.50000000 -0.01994554 2.61554897e-01
0.03061683 0.50000000 -0.02008616 2.54331529e-01
0.03136649 0.50000000 -0.02028870 2.47274786e-01
0.03212071 0.50000000 -0.02048941 2.40387022e-01
0.03262603 0.50000000 -0.02062154 2.33563706e-01
0.03312991 0.50000000 -0.02075216 2.26995528e-01
0.03388799 0.50000000 -0.02094587 2.20476195e-01
0.03464841 0.50000000 -0.02113611 2.14130670e-01
0.03515213 0.50000000 -0.02126099 2.07760826e-01
0.03565436 0.50000000 -0.02138322 2.01461419e-01
0.03641826 0.50000000 -0.02156759 1.95106313e-01
0.03718397 0.50000000 -0.02174832 1.88850552e-01
0.03768603 0.50000000 -0.02186640 1.82600051e-01
0.03818646 0.50000000 -0.02198145 1.76610351e-01
0.03895523 0.50000000 -0.02215753 1.70799687e-01
0.03972559 0.50000000 -0.02232914 1.65370464e-01
0.04049893 0.50000000 -0.02249981 1.60249203e-01
0.04099821 0.50000000 -0.02260793 1.55303985e-01
0.04149749 0.50000000 -0.02271605 1.50551885e-01
0.04227183 0.50000000 -0.02287941 1.45911887e-01
0.04304892 0.50000000 -0.02304200 1.41333103e-01
0.04354628 0.50000000 -0.02314394 1.36752725e-01
0.04404364 0.50000000 -0.02324588 1.32221818e-01
0.04482136 0.50000000 -0.02340219 1.27777010e-01
0.04560144 0.50000000 -0.02355790 1.23419516e-01
0.04638313 0.50000000 -0.02370956 1.19127378e-01
0.04687855 0.50000000 -0.02380569 1.14915281e-01
0.04737288 0.50000000 -0.02389926 1.10832050e-01
0.04815643 0.50000000 -0.02404705 1.06786698e-01
0.04894122 0.50000000 -0.02419163 1.02836415e-01
0.04972667 0.50000000 -0.02433535 9.89172757e-02
0.05022046 0.50000000 -0.02442358 9.50526446e-02
0.05071293 0.50000000 -0.02451152 9.12356675e-02
0.05149975 0.50000000 -0.02465051 8.75085890e-02
0.05228814 0.50000000 -0.02478772 8.38742182e-02
0.05307867 0.50000000 -0.02492267 8.03904235e-02
0.05356903 0.50000000 -0.02500523 7.69897625e-02
0.05405940 0.50000000 -0.02508779 7.37409815e-02
0.05484969 0.50000000 -0.02521765 7.06110522e-02
0.05564161 0.50000000 -0.02534734 6.75935745e-02
0.05643452 0.50000000 -0.02547387 6.46221489e-02
0.05692298 0.50000000 -0.02555181 6.16751835e-02
0.05741012 0.50000000 -0.02562795 5.87522239e-02
0.05820444 0.50000000 -0.02575096 5.58177829e-02
0.05899910 0.50000000 -0.02587220 5.29196896e-02
0.05979474 0.50000000 -0.02599183 5.00280224e-02
0.06059225 0.50000000 -0.02610975 4.71775420e-02
0.06107761 0.50000000 -0.02618059 4.43291850e-02
0.06156297 0.50000000 -0.02625144 4.15091552e-02
0.06235992 0.50000000 -0.02636500 3.87297384e-02
0.06315800 0.50000000 -0.02647815 3.59737165e-02
0.06395752 0.50000000 -0.02658867 3.32811698e-02
0.06444087 0.50000000 -0.02665517 3.06169242e-02
0.06492272 0.50000000 -0.02672129 2.80669555e-02
0.06572305 0.50000000 -0.02682813 2.55903527e-02
0.06652321 0.50000000 -0.02693485 2.32278928e-02
0.06732457 0.50000000 -0.02703870 2.09003445e-02
0.06812594 0.50000000 -0.02714254 1.85720902e-02
0.06860734 0.50000000 -0.02720307 1.62395183e-02
0.06908770 0.50000000 -0.02726344 1.39005380e-02
0.06988934 0.50000000 -0.02736382 1.16381785e-02
0.07069266 0.50000000 -0.02746177 9.46550816e-03
0.07149641 0.50000000 -0.02755963 7.41388602e-03
0.07230079 0.50000000 -0.02765423 5.43181971e-03
0.07277903 0.50000000 -0.02771048 3.49915982e-03
0.07325590 0.50000000 -0.02776620 1.64539041e-03
0.07406115 0.50000000 -0.02785802 -1.50669875e-04
0.07486603 0.50000000 -0.02794980 -1.85931905e-03
0.07567210 0.50000000 -0.02803890 -3.55932233e-03
0.07647817 0.50000000 -0.02812799 -5.33631863e-03
0.07728563 0.50000000 -0.02821487 -7.26622855e-03
0.07776101 0.50000000 -0.02826578 -9.35698114e-03
0.07823640 0.50000000 -0.02831670 -1.15842046e-02
0.07904288 0.50000000 -0.02840066 -1.37967980e-02
0.07985050 0.50000000 -0.02848439 -1.59590933e-02
0.08065870 0.50000000 -0.02856608 -1.80071089e-02
0.08146716 0.50000000 -0.02864684 -1.99567713e-02
0.08227717 0.50000000 -0.02872624 -2.17976179e-02
0.08274943 0.50000000 -0.02877161 -2.35618725e-02
0.08322169 0.50000000 -0.02881697 -2.51303967e-02
0.08403055 0.50000000 -0.02889360 -2.64955629e-02
0.08484047 0.50000000 -0.02896889 -2.76310593e-02
0.08565072 0.50000000 -0.02904376 -2.86399014e-02
0.08646128 0.50000000 -0.02911660 -2.96990164e-02
0.08727184 0.50000000 -0.02918944 -3.09486669e-02
0.08774246 0.50000000 -0.02923030 -3.23797166e-02
0.08821185 0.50000000 -0.02927081 -3.39921787e-02
0.08902312 0.50000000 -0.02934082 -3.55971046e-02
0.08983433 0.50000000 -0.02940893 -3.71223763e-02
0.09064617 0.50000000 -0.02947658 -3.85474488e-02
0.09145870 0.50000000 -0.02954296 -3.99060771e-02
0.09227119 0.50000000 -0.02960791 -4.12925370e-02
0.09273866 0.50000000 -0.02964527 -4.27292399e-02
0.09320505 0.50000000 -0.02968184 -4.41941656e-02
0.09401807 0.50000000 -0.02974451 -4.55953740e-02
0.09483107 0.50000000 -0.02980718 -4.68556210e-02
0.09564416 0.50000000 -0.02986729 -4.79532927e-02
0.09645775 0.50000000 -0.02992734 -4.89790663e-02
0.09727198 0.50000000 -0.02998610 -5.00603951e-02
0.09808606 0.50000000 -0.03004394 -5.13270982e-02
0.09855076 0.50000000 -0.03007697 -5.27657159e-02
0.09901431 0.50000000 -0.03010900 -5.43197580e-02
0.09982893 0.50000000 -0.03016430 -5.57916462e-02
0.10064354 0.50000000 -0.03021961 -5.70385344e-02
0.10145816 0.50000000 -0.03027251 -5.79628125e-02
0.10227329 0.50000000 -0.03032532 -5.86090758e-02
0.10308901 0.50000000 -0.03037685 -5.91206141e-02
0.10390462 0.50000000 -0.03042719 -5.97064868e-02
0.10472121 0.50000000 -0.03047742 -6.05145544e-02
0.10518211 0.50000000 -0.03050471 -6.15398250e-02
0.10564302 0.50000000 -0.03053199 -6.27432391e-02
0.10645903 0.50000000 -0.03058031 -6.39018044e-02
0.10727479 0.50000000 -0.03062678 -6.48960322e-02
0.10809125 0.50000000 -0.03067267 -6.56551346e-02
0.10890795 0.50000000 -0.03071807 -6.62182272e-02
0.10972476 0.50000000 -0.03076203 -6.67479858e-02
0.11054157 0.50000000 -0.03080599 -6.74329624e-02
0.11135960 0.50000000 -0.03084822 -6.83976337e-02
0.11181778 0.50000000 -0.03087157 -6.96056560e-02
0.11227595 0.50000000 -0.03089491 -7.09661245e-02
0.11309257 0.50000000 -0.03093568 -7.22204447e-02
0.11391018 0.50000000 -0.03097503 -7.32322633e-02
0.11472780 0.50000000 -0.03101437 -7.39103109e-02
0.11554566 0.50000000 -0.03105189 -7.43089840e-02
0.11636364 0.50000000 -0.03108900 -7.46136382e-02
0.11718232 0.50000000 -0.03112556 -7.50425979e-02
0.11800066 0.50000000 -0.03116045 -7.57648349e-02
0.11845602 0.50000000 -0.03117986 -7.67503828e-02
0.11891137 0.50000000 -0.03119928 -7.79530704e-02
0.11972912 0.50000000 -0.03123270 -7.90983736e-02
0.12054773 0.50000000 -0.03126579 -8.00326020e-02
0.12136601 0.50000000 -0.03129837 -8.05981755e-02
0.12218500 0.50000000 -0.03132893 -8.07731375e-02
0.12300398 0.50000000 -0.03135949 -8.06629658e-02
0.12382332 0.50000000 -0.03138906 -8.04795176e-02
0.12464256 0.50000000 -0.03141789 -8.04738030e-02
0.12546179 0.50000000 -0.03144671 -8.08495730e-02
0.12628213 0.50000000 -0.03147361 -8.16935673e-02
0.12673401 0.50000000 -0.03148836 -8.28913599e-02
0.12718590 0.50000000 -0.03150310 -8.43167007e-02
0.12800492 0.50000000 -0.03152917 -8.56439471e-02
0.12882469 0.50000000 -0.03155421 -8.66941214e-02
0.12964443 0.50000000 -0.03157926 -8.73021707e-02
0.13046424 0.50000000 -0.03160260 -8.74355584e-02
0.13128430 0.50000000 -0.03162526 -8.72069001e-02
0.13210476 0.50000000 -0.03164789 -8.68291855e-02
0.13292504 0.50000000 -0.03166854 -8.65644142e-02
0.13374535 0.50000000 -0.03168918 -8.66408795e-02
0.13456644 0.50000000 -0.03170936 -8.71808529e-02
0.13501497 0.50000000 -0.03171976 -8.80877152e-02
0.13546348 0.50000000 -0.03173017 -8.92877355e-02
0.13628397 0.50000000 -0.03174921 -9.04639512e-02
0.13710404 0.50000000 -0.03176694 -9.14530084e-02
0.13792476 0.50000000 -0.03178404 -9.20872241e-02
0.13874547 0.50000000 -0.03180114 -9.22991857e-02
0.13956629 0.50000000 -0.03181647 -9.21433121e-02
0.14038721 0.50000000 -0.03183164 -9.17738378e-02
0.14120855 0.50000000 -0.03184654 -9.13426057e-02
0.14202967 0.50000000 -0.03185982 -9.11297500e-02
0.14285079 0.50000000 -0.03187311 -9.13092569e-02
0.14367280 0.50000000 -0.03188572 -9.19512659e-02
0.14411791 0.50000000 -0.03189190 -9.29381773e-02
0.14456302 0.50000000 -0.03189809 -9.41618457e-02
0.14538433 0.50000000 -0.03190949 -9.53198373e-02
0.14620515 0.50000000 -0.03191970 -9.62461457e-02
0.14702664 0.50000000 -0.03192927 -9.67913196e-02
0.14784812 0.50000000 -0.03193884 -9.69028622e-02
0.14866955 0.50000000 -0.03194691 -9.66348275e-02
0.14949121 0.50000000 -0.03195465 -9.61212665e-02
0.15031287 0.50000000 -0.03196240 -9.55422893e-02
0.15113490 0.50000000 -0.03196838 -9.50999856e-02
0.15195670 0.50000000 -0.03197432 -9.49843824e-02
0.15277901 0.50000000 -0.03198010 -9.53313559e-02
0.15360095 0.50000000 -0.03198462 -9.61702317e-02
0.15404291 0.50000000 -0.03198705 -9.73500460e-02
0.15448489 0.50000000 -0.03198948 -9.86927673e-02
0.15530608 0.50000000 -0.03199343 -9.98747349e-02
0.15612815 0.50000000 -0.03199619 -1.00708008e-01
0.15695022 0.50000000 -0.03199895 -1.01065055e-01
0.15777186 0.50000000 -0.03200083 -1.00952596e-01
0.15859408 0.50000000 -0.03200152 -1.00483023e-01
0.15941631 0.50000000 -0.03200220 -9.98067409e-02
0.16023854 0.50000000 -0.03200218 -9.90577638e-02
0.16106085 0.50000000 -0.03200150 -9.83230174e-02
0.16188318 0.50000000 -0.03200082 -9.76552069e-02
0.16270585 0.50000000 -0.03199914 -9.71051231e-02
0.16352828 0.50000000 -0.03199677 -9.67486799e-02
0.16435071 0.50000000 -0.03199439 -9.66927037e-02
0.16517383 0.50000000 -0.03199095 -9.70360115e-02
0.16599636 0.50000000 -0.03198690 -9.78152379e-02
0.16643435 0.50000000 -0.03198475 -9.89079177e-02
0.16687234 0.50000000 -0.03198259 -1.00192137e-01
0.16769421 0.50000000 -0.03197733 -1.01375930e-01
0.16851684 0.50000000 -0.03197163 -1.02296569e-01
0.16933947 0.50000000 -0.03196592 -1.02814145e-01
0.17016176 0.50000000 -0.03195899 -1.02903299e-01
0.17098447 0.50000000 -0.03195166 -1.02641553e-01
0.17180720 0.50000000 -0.03194432 -1.02155350e-01
0.17262987 0.50000000 -0.03193602 -1.01569332e-01
0.17345266 0.50000000 -0.03192740 -1.00965276e-01
0.17427544 0.50000000 -0.03191878 -1.00375928e-01
0.17509850 0.50000000 -0.03190873 -9.98048261e-02
0.17592137 0.50000000 -0.03189818 -9.92586464e-02
0.17674425 0.50000000 -0.03188763 -9.87881646e-02
0.17756751 0.50000000 -0.03187620 -9.84990299e-02
0.17839043 0.50000000 -0.03186440 -9.85295475e-02
0.17921335 0.50000000 -0.03185260 -9.89971906e-02
0.18003703 0.50000000 -0.03183976 -9.99250412e-02
0.18047058 0.50000000 -0.03183272 -1.01169944e-01
0.18090415 0.50000000 -0.03182567 -1.02536790e-01
0.18172714 0.50000000 -0.03181231 -1.03709288e-01
0.18254956 0.50000000 -0.03179795 -1.04485840e-01
0.18337260 0.50000000 -0.03178304 -1.04755297e-01
0.18419564 0.50000000 -0.03176813 -1.04542844e-01
0.18501836 0.50000000 -0.03175237 -1.03983842e-01
0.18584145 0.50000000 -0.03173592 -1.03255264e-01
0.18666454 0.50000000 -0.03171947 -1.02511138e-01
0.18748756 0.50000000 -0.03170248 -1.01846814e-01
0.18831069 0.50000000 -0.03168484 -1.01291671e-01
0.18913381 0.50000000 -0.03166721 -1.00828469e-01
0.18995710 0.50000000 -0.03164895 -1.00414090e-01
0.19078026 0.50000000 -0.03162949 -9.99945030e-02
0.19160344 0.50000000 -0.03161003 -9.95250940e-02
0.19242687 0.50000000 -0.03159032 -9.89827365e-02
0.19325007 0.50000000 -0.03156968 -9.83820632e-02
0.19407327 0.50000000 -0.03154905 -9.77982432e-02
0.19489700 0.50000000 -0.03152832 -9.73675698e-02
0.19572021 0.50000000 -0.03150621 -9.72574130e-02
0.19654343 0.50000000 -0.03148411 -9.76118147e-02
0.19736666 0.50000000 -0.03146201 -9.84731838e-02
0.19779596 0.50000000 -0.03145001 -9.96902883e-02
0.19822471 0.50000000 -0.03143790 -1.01079606e-01
0.19904795 0.50000000 -0.03141465 -1.02297537e-01
0.19987119 0.50000000 -0.03139140 -1.03138499e-01
0.20069391 0.50000000 -0.03136708 -1.03468679e-01
0.20151716 0.50000000 -0.03134239 -1.03301980e-01
0.20234042 0.50000000 -0.03131770 -1.02762453e-01
0.20316333 0.50000000 -0.03129223 -1.02023192e-01
0.20398659 0.50000000 -0.03126611 -1.01238362e-01
0.20480986 0.50000000 -0.03123998 -1.00508869e-01
0.20563297 0.50000000 -0.03121339 -9.98784453e-02
0.20645624 0.50000000 -0.03118585 -9.93481502e-02
0.20727951 0.50000000 -0.03115830 -9.89032760e-02
0.20810278 0.50000000 -0.03113064 -9.85263214e-02
0.20892605 0.50000000 -0.03110199 -9.82017443e-02
0.20974933 0.50000000 -0.03107333 -9.79183987e-02
0.21057261 0.50000000 -0.03104468 -9.76637229e-02
0.21139603 0.50000000 -0.03101484 -9.74217132e-02
0.21221931 0.50000000 -0.03098480 -9.71690565e-02
0.21304258 0.50000000 -0.03095476 -9.68787819e-02
0.21386615 0.50000000 -0.03092389 -9.65211168e-02
0.21468942 0.50000000 -0.03089246 -9.60671082e-02
0.21551269 0.50000000 -0.03086103 -9.55066830e-02
0.21633630 0.50000000 -0.03082925 -9.48669985e-02
0.21715955 0.50000000 -0.03079675 -9.42302793e-02
0.21798280 0.50000000 -0.03076426 -9.37447399e-02
0.21880663 0.50000000 -0.03073171 -9.35949981e-02
0.21962988 0.50000000 -0.03069787 -9.39361751e-02
0.22045313 0.50000000 -0.03066402 -9.48183537e-02
0.22087657 0.50000000 -0.03064661 -9.60823446e-02
0.22130003 0.50000000 -0.03062920 -9.75218937e-02
0.22212274 0.50000000 -0.03059458 -9.87554640e-02
0.22294597 0.50000000 -0.03055968 -9.95459557e-02
0.22376920 0.50000000 -0.03052478 -9.97382402e-02
0.22459189 0.50000000 -0.03048933 -9.93475765e-02
0.22541510 0.50000000 -0.03045309 -9.85291302e-02
0.22623832 0.50000000 -0.03041684 -9.75001827e-02
0.22706112 0.50000000 -0.03038050 -9.64617804e-02
0.22788430 0.50000000 -0.03034294 -9.55447257e-02
0.22870748 0.50000000 -0.03030537 -9.48042274e-02
0.22953066 0.50000000 -0.03026781 -9.42356512e-02
0.23035360 0.50000000 -0.03022949 -9.38042551e-02
0.23117675 0.50000000 -0.03019089 -9.34668481e-02
0.23199990 0.50000000 -0.03015229 -9.31887925e-02
0.23282291 0.50000000 -0.03011333 -9.29464102e-02
0.23364604 0.50000000 -0.03007373 -9.27242711e-02
0.23446917 0.50000000 -0.03003412 -9.25138965e-02
0.23529231 0.50000000 -0.02999451 -9.23082456e-02
0.23611530 0.50000000 -0.02995363 -9.21006352e-02
0.23693840 0.50000000 -0.02991271 -9.18825790e-02
0.23776149 0.50000000 -0.02987179 -9.16478559e-02
0.23858456 0.50000000 -0.02983030 -9.13923383e-02
0.23940763 0.50000000 -0.02978838 -9.11136717e-02
0.24023069 0.50000000 -0.02974647 -9.08138529e-02
0.24105383 0.50000000 -0.02970434 -9.04976502e-02
0.24187685 0.50000000 -0.02966114 -9.01694298e-02
0.24269987 0.50000000 -0.02961795 -8.98357779e-02
0.24352290 0.50000000 -0.02957476 -8.95019025e-02
0.24434601 0.50000000 -0.02953082 -8.91721547e-02
0.24516899 0.50000000 -0.02948663 -8.88479874e-02
0.24599198 0.50000000 -0.02944244 -8.85312855e-02
0.24681512 0.50000000 -0.02939796 -8.82229283e-02
0.24763807 0.50000000 -0.02935280 -8.79210979e-02
0.24846102 0.50000000 -0.02930764 -8.76235515e-02
0.24928397 0.50000000 -0.02926248 -8.73256847e-02
0.25010717 0.50000000 -0.02921624 -8.70225281e-02
0.25093006 0.50000000 -0.02916982 -8.67082551e-02
0.25175295 0.50000000 -0.02912340 -8.63817781e-02
0.25257611 0.50000000 -0.02907660 -8.60457346e-02
0.25339896 0.50000000 -0.02902921 -8.57042968e-02
0.25422182 0.50000000 -0.02898182 -8.53641033e-02
0.25504467 0.50000000 -0.02893443 -8.50299075e-02
0.25586779 0.50000000 -0.02888616 -8.47042426e-02
0.25669057 0.50000000 -0.02883781 -8.43854621e-02
0.25751339 0.50000000 -0.02878946 -8.40717852e-02
0.25833653 0.50000000 -0.02874071 -8.37607384e-02
0.25915928 0.50000000 -0.02869141 -8.34480226e-02
0.25998206 0.50000000 -0.02864210 -8.31300840e-02
0.26080481 0.50000000 -0.02859280 -8.28019977e-02
0.26162798 0.50000000 -0.02854237 -8.24592263e-02
0.26245071 0.50000000 -0.02849183 -8.20963010e-02
0.26327340 0.50000000 -0.02844130 -8.17124695e-02
0.26409645 0.50000000 -0.02839040 -8.13139007e-02
0.26491911 0.50000000 -0.02833893 -8.08984116e-02
0.26574177 0.50000000 -0.02828746 -8.04675072e-02
0.26656442 0.50000000 -0.02823600 -8.00157413e-02
0.26738744 0.50000000 -0.02818371 -7.95291662e-02
0.26821003 0.50000000 -0.02813129 -7.89830759e-02
0.26903262 0.50000000 -0.02807888 -7.83541053e-02
0.26985564 0.50000000 -0.02802617 -7.76348561e-02
0.27067819 0.50000000 -0.02797283 -7.68550560e-02
0.27150072 0.50000000 -0.02791949 -7.61098415e-02
0.27232328 0.50000000 -0.02786615 -7.55602792e-02
0.27314620 0.50000000 -0.02781212 -7.54030645e-02
0.27396869 0.50000000 -0.02775786 -7.57979229e-02
0.27479118 0.50000000 -0.02770361 -7.67848790e-02
0.27520404 0.50000000 -0.02767637 -7.81819597e-02
0.27561643 0.50000000 -0.02764902 -7.97435790e-02
0.27643886 0.50000000 -0.02759382 -8.10559169e-02
0.27726128 0.50000000 -0.02753863 -8.18489715e-02
0.27808371 0.50000000 -0.02748342 -8.19595084e-02
0.27890549 0.50000000 -0.02742760 -8.14156830e-02
0.27972786 0.50000000 -0.02737122 -8.04037824e-02
0.28055021 0.50000000 -0.02731484 -7.91804493e-02
0.28137255 0.50000000 -0.02725847 -7.79813155e-02
0.28219452 0.50000000 -0.02720147 -7.69605488e-02
0.28301685 0.50000000 -0.02714444 -7.61742815e-02
0.28383915 0.50000000 -0.02708740 -7.56036043e-02
0.28466101 0.50000000 -0.02703008 -7.51874372e-02
0.28548324 0.50000000 -0.02697216 -7.48520419e-02
0.28630548 0.50000000 -0.02691423 -7.45353997e-02
0.28712771 0.50000000 -0.02685631 -7.41975159e-02
0.28794932 0.50000000 -0.02679756 -7.38280416e-02
0.28877147 0.50000000 -0.02673844 -7.34450743e-02
0.28959362 0.50000000 -0.02667932 -7.30903745e-02
0.29041547 0.50000000 -0.02662017 -7.28088617e-02
0.29123758 0.50000000 -0.02656045 -7.26237073e-02
0.29205969 0.50000000 -0.02650073 -7.25178644e-02
0.29288180 0.50000000 -0.02644101 -7.24311694e-02
0.29329399 0.50000000 -0.02641107 -7.23175034e-02
0.29370659 0.50000000 -0.02638069 -7.20563307e-02
0.29452860 0.50000000 -0.02632004 -7.16440380e-02
0.29535065 0.50000000 -0.02625939 -7.10517466e-02
0.29617269 0.50000000 -0.02619874 -7.03362450e-02
0.29699510 0.50000000 -0.02613736 -6.95770308e-02
0.29781706 0.50000000 -0.02607584 -6.88416585e-02
0.29863904 0.50000000 -0.02601430 -6.81744367e-02
0.29946140 0.50000000 -0.02595264 -6.75904900e-02
0.30028332 0.50000000 -0.02589023 -6.70823529e-02
0.30110521 0.50000000 -0.02582782 -6.66367263e-02
0.30192710 0.50000000 -0.02576541 -6.62386641e-02
0.30274927 0.50000000 -0.02570271 -6.58756346e-02
0.30357112 0.50000000 -0.02563966 -6.55350611e-02
0.30439297 0.50000000 -0.02557661 -6.52057678e-02
0.30521481 0.50000000 -0.02551355 -6.48760647e-02
0.30603705 0.50000000 -0.02544963 -6.45364001e-02
0.30685879 0.50000000 -0.02538545 -6.41787350e-02
0.30768055 0.50000000 -0.02532127 -6.38022274e-02
0.30850256 0.50000000 -0.02525705 -6.34107664e-02
0.30932425 0.50000000 -0.02519222 -6.30102083e-02
0.31014594 0.50000000 -0.02512740 -6.26082122e-02
0.31096763 0.50000000 -0.02506258 -6.22102469e-02
0.31178961 0.50000000 -0.02499747 -6.18194006e-02
0.31261121 0.50000000 -0.02493180 -6.14343807e-02
0.31343284 0.50000000 -0.02486613 -6.10541590e-02
0.31425445 0.50000000 -0.02480045 -6.06771186e-02
0.31507631 0.50000000 -0.02473424 -6.03032261e-02
0.31589785 0.50000000 -0.02466767 -5.99318966e-02
0.31671939 0.50000000 -0.02460110 -5.95649220e-02
0.31754090 0.50000000 -0.02453453 -5.92030808e-02
0.31836256 0.50000000 -0.02446745 -5.88461980e-02
0.31918406 0.50000000 -0.02440028 -5.84912635e-02
0.32000553 0.50000000 -0.02433311 -5.81353530e-02
0.32082720 0.50000000 -0.02426586 -5.77757172e-02
0.32164861 0.50000000 -0.02419780 -5.74088097e-02
0.32247001 0.50000000 -0.02412975 -5.70343472e-02
0.32329139 0.50000000 -0.02406170 -5.66527992e-02
0.32411293 0.50000000 -0.02399336 -5.62659800e-02
0.32493424 0.50000000 -0.02392443 -5.58737181e-02
0.32575556 0.50000000 -0.02385550 -5.54770827e-02
0.32657688 0.50000000 -0.02378657 -5.50754704e-02
0.32739823 0.50000000 -0.02371731 -5.46677932e-02
0.32821947 0.50000000 -0.02364779 -5.42514212e-02
0.32904075 0.50000000 -0.02357827 -5.38259037e-02
0.32986199 0.50000000 -0.02350876 -5.33924177e-02
0.33068325 0.50000000 -0.02343857 -5.29552959e-02
0.33150440 0.50000000 -0.02336818 -5.25190122e-02
0.33232559 0.50000000 -0.02329780 -5.20897247e-02
0.33314674 0.50000000 -0.02322742 -5.16703650e-02
0.33396786 0.50000000 -0.02315644 -5.12598157e-02
0.33478897 0.50000000 -0.02308545 -5.08515090e-02
0.33561008 0.50000000 -0.02301446 -5.04380874e-02
0.33643109 0.50000000 -0.02294328 -5.00144735e-02
0.33725209 0.50000000 -0.02287115 -4.95786406e-02
0.33807307 0.50000000 -0.02279902 -4.91373539e-02
0.33889407 0.50000000 -0.02272689 -4.87016067e-02
0.33971500 0.50000000 -0.02265465 -4.82836962e-02
0.34053595 0.50000000 -0.02258220 -4.78921793e-02
0.34135690 0.50000000 -0.02250976 -4.75302152e-02
0.34217786 0.50000000 -0.02243732 -4.71943617e-02
0.34299860 0.50000000 -0.02236442 -4.68770526e-02
0.34381946 0.50000000 -0.02229110 -4.65672873e-02
0.34464031 0.50000000 -0.02221778 -4.62558605e-02
0.34546117 0.50000000 -0.02214446 -4.59340662e-02
0.34628172 0.50000000 -0.02207055 -4.55941893e-02
0.34710249 0.50000000 -0.02199636 -4.52271923e-02
0.34792326 0.50000000 -0.02192217 -4.48272824e-02
0.34874403 0.50000000 -0.02184799 -4.43947837e-02
0.34956453 0.50000000 -0.02177331 -4.39436436e-02
0.35038523 0.50000000 -0.02169854 -4.35044132e-02
0.35120592 0.50000000 -0.02162377 -4.31215428e-02
0.35202638 0.50000000 -0.02154901 -4.28362675e-02
0.35284701 0.50000000 -0.02147363 -4.26627509e-02
0.35366764 0.50000000 -0.02139825 -4.25712392e-02
0.35448826 0.50000000 -0.02132287 -4.24872562e-02
0.35490752 0.50000000 -0.02128436 -4.23604958e-02
0.35532719 0.50000000 -0.02124566 -4.20529321e-02
0.35614770 0.50000000 -0.02116943 -4.15684544e-02
0.35696824 0.50000000 -0.02109319 -4.08761315e-02
0.35778877 0.50000000 -0.02101695 -4.00458761e-02
0.35860953 0.50000000 -0.02094051 -3.91725339e-02
0.35943000 0.50000000 -0.02086367 -3.83371375e-02
0.36025046 0.50000000 -0.02078683 -3.75907086e-02
0.36107090 0.50000000 -0.02071000 -3.69474068e-02
0.36189160 0.50000000 -0.02063277 -3.63968983e-02
0.36271195 0.50000000 -0.02055509 -3.59153449e-02
0.36353232 0.50000000 -0.02047740 -3.54817435e-02
0.36435267 0.50000000 -0.02039971 -3.50785181e-02
0.36517309 0.50000000 -0.02032182 -3.46919596e-02
0.36599341 0.50000000 -0.02024377 -3.43084373e-02
0.36681373 0.50000000 -0.02016571 -3.39148417e-02
0.36763405 0.50000000 -0.02008766 -3.34985219e-02
0.36845441 0.50000000 -0.02000891 -3.30516249e-02
0.36927459 0.50000000 -0.01992978 -3.25710513e-02
0.37009478 0.50000000 -0.01985066 -3.20649333e-02
0.37091496 0.50000000 -0.01977154 -3.15476768e-02
0.37173513 0.50000000 -0.01969213 -3.10369078e-02
0.37255525 0.50000000 -0.01961262 -3.05472854e-02
0.37337541 0.50000000 -0.01953311 -3.00883166e-02
0.37419554 0.50000000 -0.01945360 -2.96615902e-02
0.37501553 0.50000000 -0.01937341 -2.92624794e-02
0.37583554 0.50000000 -0.01929307 -2.88801957e-02
0.37665558 0.50000000 -0.01921272 -2.85036359e-02
0.37747562 0.50000000 -0.01913238 -2.81211734e-02
0.37829540 0.50000000 -0.01905127 -2.77235527e-02
0.37911532 0.50000000 -0.01897007 -2.73041073e-02
0.37993524 0.50000000 -0.01888887 -2.68655755e-02
0.38075516 0.50000000 -0.01880766 -2.64170431e-02
0.38157494 0.50000000 -0.01872615 -2.59871092e-02
0.38239483 0.50000000 -0.01864462 -2.56084614e-02
0.38321470 0.50000000 -0.01856309 -2.53107827e-02
0.38403421 0.50000000 -0.01848157 -2.51015630e-02
0.38485399 0.50000000 -0.01839915 -2.49494985e-02
0.38567376 0.50000000 -0.01831675 -2.47872118e-02
0.38609610 0.50000000 -0.01827429 -2.45740395e-02
0.38651843 0.50000000 -0.01823183 -2.41839196e-02
0.38733847 0.50000000 -0.01814933 -2.36299224e-02
0.38815814 0.50000000 -0.01806632 -2.28831135e-02
0.38897785 0.50000000 -0.01798332 -2.20127627e-02
0.38979752 0.50000000 -0.01790031 -2.11087838e-02
0.39061742 0.50000000 -0.01781718 -2.02502571e-02
0.39143703 0.50000000 -0.01773355 -1.94805320e-02
0.39225663 0.50000000 -0.01764992 -1.88094415e-02
0.39307623 0.50000000 -0.01756629 -1.82191879e-02
0.39389599 0.50000000 -0.01748247 -1.76809449e-02
0.39471548 0.50000000 -0.01739802 -1.71639938e-02
0.39553496 0.50000000 -0.01731358 -1.66486092e-02
0.39635448 0.50000000 -0.01722913 -1.61247961e-02
0.39717398 0.50000000 -0.01714459 -1.55923655e-02
0.39799341 0.50000000 -0.01705975 -1.50562897e-02
0.39881287 0.50000000 -0.01697491 -1.45250512e-02
0.39963229 0.50000000 -0.01689007 -1.40056089e-02
0.40045168 0.50000000 -0.01680501 -1.35018043e-02
0.40127098 0.50000000 -0.01671933 -1.30102029e-02
0.40209032 0.50000000 -0.01663365 -1.25239808e-02
0.40290963 0.50000000 -0.01654798 -1.20317061e-02
0.40372877 0.50000000 -0.01646207 -1.15225008e-02
0.40454799 0.50000000 -0.01637556 -1.09900041e-02
0.40536719 0.50000000 -0.01628905 -1.04436986e-02
0.40618640 0.50000000 -0.01620254 -9.91087128e-03
0.40700547 0.50000000 -0.01611593 -9.43342131e-03
0.40782460 0.50000000 -0.01602903 -9.05146636e-03
0.40864377 0.50000000 -0.01594213 -8.78203381e-03
0.40946293 0.50000000 -0.01585523 -8.59942939e-03
0.41028175 0.50000000 -0.01576817 -8.43451731e-03
0.41070630 0.50000000 -0.01572282 -8.23573768e-03
0.41113082 0.50000000 -0.01567746 -7.86805246e-03
0.41194988 0.50000000 -0.01558995 -7.32994406e-03
0.41276894 0.50000000 -0.01550245 -6.58679521e-03
0.41358831 0.50000000 -0.01541461 -5.70271397e-03
0.41440725 0.50000000 -0.01532625 -4.76225512e-03
0.41522619 0.50000000 -0.01523789 -3.84558528e-03
0.41604514 0.50000000 -0.01514953 -3.00049595e-03
0.41686418 0.50000000 -0.01506094 -2.24045571e-03
0.41768305 0.50000000 -0.01497195 -1.55045115e-03
0.41850189 0.50000000 -0.01488296 -9.06902773e-04
0.41932072 0.50000000 -0.01479397 -2.86261231e-04
0.42013961 0.50000000 -0.01470477 3.26675858e-04
0.42095837 0.50000000 -0.01461518 9.40140337e-04
0.42177711 0.50000000 -0.01452559 1.55383151e-03
0.42259587 0.50000000 -0.01443600 2.16548331e-03
0.42341453 0.50000000 -0.01434616 2.77293311e-03
0.42423318 0.50000000 -0.01425572 3.37912631e-03
0.42505180 0.50000000 -0.01416529 3.98614677e-03
0.42587044 0.50000000 -0.01407485 4.59420448e-03
0.42668893 0.50000000 -0.01398431 5.19432081e-03
0.42750752 0.50000000 -0.01389347 5.76537056e-03
0.42832608 0.50000000 -0.01380263 6.27474347e-03
0.42914467 0.50000000 -0.01371178 6.69250917e-03
0.42996286 0.50000000 -0.01362076 7.01015163e-03
0.43078130 0.50000000 -0.01352908 7.25935260e-03
0.43159974 0.50000000 -0.01343740 7.50935217e-03
0.43202606 0.50000000 -0.01338965 7.80496467e-03
0.43245236 0.50000000 -0.01334189 8.27835035e-03
0.43327105 0.50000000 -0.01325001 8.92214477e-03
0.43408939 0.50000000 -0.01315771 9.77094099e-03
0.43490773 0.50000000 -0.01306541 1.07589131e-02
0.43572610 0.50000000 -0.01297311 1.17984545e-02
0.43654457 0.50000000 -0.01288065 1.28115807e-02
0.43736281 0.50000000 -0.01278773 1.37553513e-02
0.43818107 0.50000000 -0.01269480 1.46179507e-02
0.43899930 0.50000000 -0.01260189 1.54128317e-02
0.43981759 0.50000000 -0.01250884 1.61622241e-02
0.44063575 0.50000000 -0.01241528 1.68896113e-02
0.44145388 0.50000000 -0.01232171 1.76096335e-02
0.44227204 0.50000000 -0.01222814 1.83313582e-02
0.44309007 0.50000000 -0.01213448 1.90571267e-02
0.44390808 0.50000000 -0.01204006 1.97855048e-02
0.44472609 0.50000000 -0.01194563 2.05026716e-02
0.44554410 0.50000000 -0.01185121 2.11847946e-02
0.44636202 0.50000000 -0.01175677 2.18007714e-02
0.44717994 0.50000000 -0.01166197 2.23259181e-02
0.44799790 0.50000000 -0.01156718 2.27573402e-02
0.44881585 0.50000000 -0.01147238 2.31289454e-02
0.44963339 0.50000000 -0.01137763 2.35089008e-02
0.45006137 0.50000000 -0.01132754 2.39403509e-02
0.45048939 0.50000000 -0.01127746 2.45474055e-02
0.45130719 0.50000000 -0.01118175 2.53184531e-02
0.45212499 0.50000000 -0.01108604 2.62820329e-02
0.45294279 0.50000000 -0.01099034 2.73731761e-02
0.45376069 0.50000000 -0.01089400 2.85056457e-02
0.45457839 0.50000000 -0.01079769 2.96090804e-02
0.45539609 0.50000000 -0.01070137 3.06407698e-02
0.45621379 0.50000000 -0.01060505 3.15929167e-02
0.45703147 0.50000000 -0.01050814 3.24797668e-02
0.45784907 0.50000000 -0.01041119 3.33276652e-02
0.45866666 0.50000000 -0.01031424 3.41583416e-02
0.45948425 0.50000000 -0.01021728 3.49882990e-02
0.46030171 0.50000000 -0.01011959 3.58252935e-02