TITLE = "cutData curvilinear distance mapping"
VARIABLES = "s" "variable Index"

ZONE T="SLICE_Y_0p9144_BINS01_KS_0p2mm_CUTDATA"
0 0

ZONE T="SLICE_Y_0p9144_BINS03_KS_0p2mm_CUTDATA"
0 0

ZONE T="SLICE_Y_0p9144_BINS07_KS_0p2mm_CUTDATA"
0 0

ZONE T="SLICE_Y_0p9144_BINS15_KS_0p2mm_CUTDATA"
-0.551480370641 371
-0.55111970134 370
-0.550542515622 369
-0.549619215861 368
-0.548142007893 367
-0.545778233219 366
-0.541996064869 365
-0.53820886796 364
-0.534421501412 363
-0.53063426371 362
-0.526847091788 361
-0.52305974396 360
-0.51927241092 359
-0.515485187571 358
-0.511697962699 357
-0.507910740143 356
-0.504123515918 355
-0.500336040772 354
-0.496548789512 353
-0.492761536367 352
-0.48897445353 351
-0.485187102038 350
-0.481399933362 349
-0.477612423532 348
-0.47382533334 347
-0.470037914607 346
-0.466250699515 345
-0.462463338456 344
-0.458676093816 343
-0.454888796317 342
-0.451101597211 341
-0.447314284739 340
-0.44352712102 339
-0.439739800396 338
-0.435952556027 337
-0.432165248752 336
-0.428377975476 335
-0.424590614212 334
-0.420803336373 333
-0.417016174187 332
-0.413228876253 331
-0.409441687116 330
-0.405654312734 329
-0.401867038834 328
-0.398079907502 327
-0.394292581269 326
-0.390505388583 325
-0.386718035953 324
-0.382930809295 323
-0.379143417178 322
-0.375356153312 321
-0.37156895365 320
-0.36778165824 319
-0.363994262579 318
-0.360207227676 317
-0.356419786159 316
-0.352632519062 315
-0.348845382572 314
-0.34505813358 313
-0.341270787642 312
-0.337483557135 311
-0.333696267465 310
-0.329908914463 309
-0.326121699586 308
-0.32233443729 307
-0.318547104552 306
-0.314759930262 305
-0.310972516071 304
-0.307185249619 303
-0.303397994791 302
-0.299610690676 301
-0.295823585025 300
-0.292036236857 299
-0.288248905186 298
-0.284461561793 297
-0.280674489029 296
-0.276887149466 295
-0.273099880603 294
-0.269312596768 293
-0.265525394316 292
-0.261737982531 291
-0.25795087855 290
-0.254163563306 289
-0.250376374575 288
-0.246588949761 287
-0.242801663709 286
-0.239014449434 285
-0.235227075112 284
-0.231439809673 283
-0.227652692067 282
-0.223865400625 281
-0.22007797659 280
-0.216290679622 279
-0.212503518752 278
-0.208716233808 277
-0.204929074508 276
-0.201141803463 275
-0.197354372669 274
-0.193567103649 273
-0.189779943218 272
-0.185992655359 271
-0.182205216553 270
-0.178418140208 269
-0.174630898911 268
-0.170843498026 267
-0.167056136586 266
-0.163268838364 265
-0.159481802026 264
-0.155694529693 263
-0.151907217914 262
-0.148119858316 261
-0.144332638812 260
-0.1406614176 259
-0.13716506011 258
-0.133835063682 257
-0.130663706043 256
-0.127643540762 255
-0.124767116916 254
-0.122027515431 253
-0.119418575278 252
-0.116933664089 251
-0.114567141788 250
-0.112313397154 249
-0.110167063943 248
-0.10812278987 247
-0.106175736474 246
-0.104321564343 245
-0.102401745467 244
-0.100481801247 243
-0.0985619322372 242
-0.0966421415096 241
-0.0947223810261 240
-0.0928023526421 239
-0.0908825480851 238
-0.0889626660225 237
-0.0870429020278 236
-0.0851229947518 235
-0.0832031032907 234
-0.081283192582 233
-0.0793634582888 232
-0.0774435699439 231
-0.0755237299379 230
-0.0736038283435 229
-0.0716840452919 228
-0.0697642785854 227
-0.067844413034 226
-0.0659244008909 225
-0.0640047670531 224
-0.0620846416173 223
-0.0601648618809 222
-0.0582450033692 221
-0.0563250881845 220
-0.0544054093684 219
-0.05248541518 218
-0.0505657301489 217
-0.048645819948 216
-0.0467260316995 215
-0.0448060132785 214
-0.0428862293793 213
-0.0409664218333 212
-0.0390463844848 211
-0.0371266840354 210
-0.0352067927463 209
-0.0332870345547 208
-0.0313671332851 207
-0.0294471554512 206
-0.0275273845334 205
-0.0256074005172 204
-0.0236876108677 203
-0.0217677766269 202
-0.0198743429161 201
-0.0181556209965 200
-0.0165904662396 199
-0.0151866433447 198
-0.0138941019032 197
-0.0127002363447 196
-0.0115964053649 195
-0.0105611233857 194
-0.00955784439349 193
-0.00857266932834 192
-0.00761226939347 191
-0.00664726040314 190
-0.00565742755761 189
-0.00464916888757 188
-0.00360778294985 187
-0.00249922164067 186
-0.001299286422 185
0 184
0.00141569964456 183
0.00299417437521 182
0.00472532882773 181
0.0066367387977 180
0.00856594530837 179
0.0104952227852 178
0.0124244504608 177
0.0143537037781 176
0.0162827857712 175
0.018212152678 174
0.0201415247571 173
0.0220706409617 172
0.0239998487574 171
0.0259291546775 170
0.0278583860007 169
0.0297877298645 168
0.0317169271141 167
0.0336462957729 166
0.0355755697454 165
0.03750471559 164
0.0394339017461 163
0.0413632597603 162
0.0432923351303 161
0.0452217017978 160
0.0471510227114 159
0.0490800652108 158
0.051009411905 157
0.0529386668597 156
0.0548679594579 155
0.056797067413 154
0.0587264684861 153
0.0606557805345 152
0.0625849371961 151
0.0645143349406 150
0.066443530629 149
0.0683726714919 148
0.070301845076 147
0.0722311054292 146
0.0741603633551 145
0.0760896359996 144
0.0780190630893 143
0.0799481460452 142
0.0818774658667 141
0.0838066193109 140
0.0857358485577 139
0.0876653122259 138
0.0895944301365 137
0.0915249020841 136
0.0935517235411 135
0.0956799667254 134
0.0979146565023 133
0.100261049018 132
0.102724763806 131
0.105311753288 130
0.1080280679 129
0.110880012432 128
0.113874909087 127
0.117019223451 126
0.120320842621 125
0.123787526922 124
0.127427611138 123
0.131195051652 122
0.134962451227 121
0.138729720817 120
0.14249717927 119
0.146264678518 118
0.150032073966 117
0.153799434234 116
0.157566823719 115
0.16133407276 114
0.165101507337 113
0.168868949228 112
0.172636397189 111
0.17640370403 110
0.180171158603 109
0.183938546825 108
0.18770591757 107
0.191473319985 106
0.195240766472 105
0.199008056175 104
0.202775481727 103
0.206542804745 102
0.21031032468 101
0.214077798897 100
0.21784500679 99
0.221612472532 98
0.225379979028 97
0.229147275676 96
0.232914646797 95
0.236682115822 94
0.240449426038 93
0.244216865739 92
0.247984191352 91
0.251751674589 90
0.255519060144 89
0.259286368977 88
0.26305387405 87
0.266821327348 86
0.270588737926 85
0.274356114834 84
0.278123458879 83
0.281890797099 82
0.285658127795 81
0.289425708828 80
0.293193046535 79
0.296960398827 78
0.300727771971 77
0.304495159819 76
0.308262589676 75
0.312030057797 74
0.3157973053 73
0.31956486288 72
0.323332217168 71
0.327099619508 70
0.330867081703 69
0.334634358582 68
0.338401701043 67
0.342169113305 66
0.345936595048 65
0.349703910282 64
0.353471303221 63
0.357238773423 62
0.361006073394 61
0.364773472625 60
0.36854096122 59
0.372308284139 58
0.376075704365 57
0.379843231996 56
0.383610610769 55
0.387377834064 54
0.391145415016 53
0.394912614961 52
0.398680171337 51
0.40244757665 50
0.40621486204 49
0.409982281997 48
0.413749550246 47
0.417516969238 46
0.421284503004 45
0.42505191449 44
0.428819217065 43
0.432586663487 42
0.436353996841 41
0.440121480922 40
0.443888859339 39
0.447656145013 38
0.451423570108 37
0.45519093057 36
0.458958436698 35
0.462725875393 34
0.466493238637 33
0.470260519821 32
0.474027981982 31
0.477795391367 30
0.481562742371 29
0.48533029489 28
0.489097551282 27
0.492865015839 26
0.496632451563 25
0.500399858809 24
0.504167230298 23
0.507934611307 22
0.51170197538 21
0.515469348349 20
0.519236729212 19
0.523004111755 18
0.526771526842 17
0.530553513372 16
0.532917377497 15
0.534394585581 14
0.535318038679 13
0.535894988625 12
0.536255786253 11
0.536367823009 10
0.53647984248 9
0.536591879235 8
0.536703916693 7
0.536815953448 6
0.53692797292 5
0.537039751023 4
0.537151787778 3
0.537263824534 2
0.537375844005 1
0.537487881463 0
