#+++++++++++++++++++++++++++++++++++++++++++++++++++++++++++++++++++++++++++++++++++++++++++++++++++++++++++++++++++++++++++++++++
#
#   IPW-3 Cut/Slice DATA SUBMITTAL FORM for Test Case NACA0012_AE3932, May 18th 2026
#
#       NOMENCLATURE:
#                  X X-coordinate of the surface clean for reference
#                  Y Y-coordinate of the surface clean for reference
#                  Z Z-coordinate of the surface clean for reference
#                 Cp [-]: Pressure coefficient
#            HTC [W/m2K]: Convective Heat Transfer Coefficient on the rough surface
#               Beta [-]: Collection efficiency
#                 Ts Surface temperature
#                 FF [-]: Freezing fraction
#                  k Surface roughness height if variable OPTIONAL
#         RhoIce [kg/m3]: Ice density OPTIONAL
#      HTC_CLEAN [W/m2K]: Convective Heat Transfer Coefficient on the surface without roughness OPTIONAL
#
#    FLOW CONDITIONS:
#                                   AOA: 0.0 deg
#                           Mach Number: 0.3146 [-]
#       Mean aerodynamic chord M.A.C.: 21.0 [in]
#                       Reynolds Number: 3.9758 million based on MAC
#                       Freestream Temp: 267.55 [K]
#                        Reference area: 115.5 [in2]
#               Moment Reference Center: 5.25, 0.0, 0.0 [in] X, Y, Z
#                           Roughness: 0.2 [mm]
#
#    ICING CONDITIONS:
#                           Icing Time: 420.0 [s]
#                                  LWC: 0.55 [g/m3]
#                                  MVD: 20.0 [um]
#                          Ice Density: 615.0 [kg/m3]
#
#++++++++++++++++++++++++++++++++++++++++++++++++++++++++++++++++++++++++++++++++++++++++++++++++++++++++++++++++++++

                                                    <- Optional ->
VARIABLES = "X" "Y" "Z" "Cp" "HTC" "Beta" "Ts" "FF" "k" "RhoIce" "HTC_CLEAN"

ZONE T="SLICE_Y_0p9144_BINS01_KS_0p2mm_CUTDATA"
-999 -999 -999 -999 -999 -999 -999 -999 -999 -999 -999

ZONE T="SLICE_Y_0p9144_BINS03_KS_0p2mm_CUTDATA"
-999 -999 -999 -999 -999 -999 -999 -999 -999 -999 -999

ZONE T="SLICE_Y_0p9144_BINS07_KS_0p2mm_CUTDATA"
-999 -999 -999 -999 -999 -999 -999 -999 -999 -999 -999

ZONE T="SLICE_Y_0p9144_BINS15_KS_0p2mm_CUTDATA"
0.53246452 0.91440000 -0.02734742 0.02093000 117.90520000 0.00000000 266.10509000 0.00000000 0.00019990 615.00000000 -999
0.53245664 0.91440000 -0.02745918 0.10197000 30.62923000 0.00000000 266.06333000 0.00000000 0.00019990 615.00000000 -999
0.53244902 0.91440000 -0.02757094 0.11108000 69.56381000 0.00000000 266.87796000 0.00000000 0.00019990 615.00000000 -999
0.53244115 0.91440000 -0.02768270 0.11702000 95.78043000 0.00000000 266.93437000 0.00000000 0.00019990 615.00000000 -999
0.53243328 0.91440000 -0.02779446 0.12063000 119.21990000 0.00000000 266.96428000 0.00000000 0.00019990 615.00000000 -999
0.53242540 0.91440000 -0.02790596 0.12273000 136.99180000 0.00000000 266.97997000 0.00000000 0.00019990 615.00000000 -999
0.53241778 0.91440000 -0.02801772 0.12150000 149.14160000 0.00000000 266.98726000 0.00000000 0.00019990 615.00000000 -999
0.53240991 0.91440000 -0.02812948 0.11744000 152.03100000 0.00000000 266.98686000 0.00000000 0.00019990 615.00000000 -999
0.53240203 0.91440000 -0.02824124 0.10813000 142.27940000 0.00000000 266.97583000 0.00000000 0.00019990 615.00000000 -999
0.53239416 0.91440000 -0.02835300 0.09368000 76.47422000 0.00000000 266.69951000 0.00000000 0.00019990 615.00000000 -999
0.53238654 0.91440000 -0.02846476 -0.02198000 128.95290000 0.00000000 266.65922000 0.00000000 0.00019990 615.00000000 -999
0.53237867 0.91440000 -0.02857652 0.03599000 317.34830000 0.00000000 266.98580000 0.00000000 0.00019990 615.00000000 -999
0.53201875 0.91440000 -0.02860167 0.16937000 335.51090000 0.00000000 267.06044000 0.00000000 0.00019990 615.00000000 -999
0.53144318 0.91440000 -0.02864155 0.13870000 271.66930000 0.00000000 267.03617000 0.00000000 0.00019990 615.00000000 -999
0.53052193 0.91440000 -0.02870530 0.13848000 267.86500000 0.00000000 267.03537000 0.00000000 0.00019990 615.00000000 -999
0.52904822 0.91440000 -0.02880690 0.13262000 267.74200000 0.00000000 267.03225000 0.00000000 0.00019990 615.00000000 -999
0.52668983 0.91440000 -0.02896768 0.12628000 269.51190000 0.00000000 267.02921000 0.00000000 0.00019990 615.00000000 -999
0.52291640 0.91440000 -0.02922194 0.11716000 272.71180000 0.00000000 267.02495000 0.00000000 0.00019990 615.00000000 -999
0.51915720 0.91440000 -0.02947060 0.10842000 276.42200000 0.00000000 267.02097000 0.00000000 0.00019990 615.00000000 -999
0.51539775 0.91440000 -0.02971495 0.10027000 279.97080000 0.00000000 267.01725000 0.00000000 0.00019990 615.00000000 -999
0.51163804 0.91440000 -0.02995524 0.09271000 283.20150000 0.00000000 267.01378000 0.00000000 0.00019990 615.00000000 -999
0.50787808 0.91440000 -0.03019146 0.08569000 286.11140000 0.00000000 267.01052000 0.00000000 0.00019990 615.00000000 -999
0.50411786 0.91440000 -0.03042336 0.07909000 288.79100000 0.00000000 267.00745000 0.00000000 0.00019990 615.00000000 -999
0.50035739 0.91440000 -0.03065145 0.07290000 291.29280000 0.00000000 267.00455000 0.00000000 0.00019990 615.00000000 -999
0.49659667 0.91440000 -0.03087522 0.06710000 293.64280000 0.00000000 267.00183000 0.00000000 0.00019990 615.00000000 -999
0.49283569 0.91440000 -0.03109519 0.06161000 295.86580000 0.00000000 266.99924000 0.00000000 0.00019990 615.00000000 -999
0.48907446 0.91440000 -0.03131134 0.05642000 297.97050000 0.00000000 266.99680000 0.00000000 0.00019990 615.00000000 -999
0.48531297 0.91440000 -0.03152343 0.05147000 299.97620000 0.00000000 266.99446000 0.00000000 0.00019990 615.00000000 -999
0.48155149 0.91440000 -0.03173197 0.04677000 301.89120000 0.00000000 266.99223000 0.00000000 0.00019990 615.00000000 -999
0.47778949 0.91440000 -0.03193644 0.04229000 303.72730000 0.00000000 266.99011000 0.00000000 0.00019990 615.00000000 -999
0.47402750 0.91440000 -0.03213735 0.03800000 305.49210000 0.00000000 266.98808000 0.00000000 0.00019990 615.00000000 -999
0.47026525 0.91440000 -0.03233445 0.03388000 307.19450000 0.00000000 266.98612000 0.00000000 0.00019990 615.00000000 -999
0.46650275 0.91440000 -0.03252775 0.02994000 308.83480000 0.00000000 266.98425000 0.00000000 0.00019990 615.00000000 -999
0.46274025 0.91440000 -0.03271749 0.02617000 310.42510000 0.00000000 266.98245000 0.00000000 0.00019990 615.00000000 -999
0.45897749 0.91440000 -0.03290367 0.02251000 311.97060000 0.00000000 266.98071000 0.00000000 0.00019990 615.00000000 -999
0.45521448 0.91440000 -0.03308629 0.01900000 313.45790000 0.00000000 266.97904000 0.00000000 0.00019990 615.00000000 -999
0.45145122 0.91440000 -0.03326511 0.01560000 314.91870000 0.00000000 266.97742000 0.00000000 0.00019990 615.00000000 -999
0.44768795 0.91440000 -0.03344062 0.01232000 316.34350000 0.00000000 266.97586000 0.00000000 0.00019990 615.00000000 -999
0.44392444 0.91440000 -0.03361233 0.00916000 317.72680000 0.00000000 266.97435000 0.00000000 0.00019990 615.00000000 -999
0.44016092 0.91440000 -0.03378073 0.00606000 319.09380000 0.00000000 266.97288000 0.00000000 0.00019990 615.00000000 -999
0.43639715 0.91440000 -0.03394558 0.00309000 320.43080000 0.00000000 266.97146000 0.00000000 0.00019990 615.00000000 -999
0.43263312 0.91440000 -0.03410687 0.00020000 321.74030000 0.00000000 266.97008000 0.00000000 0.00019990 615.00000000 -999
0.42886909 0.91440000 -0.03426460 -0.00264000 323.04350000 0.00000000 266.96873000 0.00000000 0.00019990 615.00000000 -999
0.42510481 0.91440000 -0.03441903 -0.00539000 324.32630000 0.00000000 266.96743000 0.00000000 0.00019990 615.00000000 -999
0.42134053 0.91440000 -0.03456991 -0.00804000 325.58310000 0.00000000 266.96616000 0.00000000 0.00019990 615.00000000 -999
0.41757600 0.91440000 -0.03471723 -0.01066000 326.82780000 0.00000000 266.96492000 0.00000000 0.00019990 615.00000000 -999
0.41381121 0.91440000 -0.03486099 -0.01321000 328.05790000 0.00000000 266.96370000 0.00000000 0.00019990 615.00000000 -999
0.41004642 0.91440000 -0.03500171 -0.01570000 329.27750000 0.00000000 266.96252000 0.00000000 0.00019990 615.00000000 -999
0.40628164 0.91440000 -0.03513861 -0.01814000 330.48630000 0.00000000 266.96136000 0.00000000 0.00019990 615.00000000 -999
0.40251659 0.91440000 -0.03527222 -0.02054000 331.69040000 0.00000000 266.96022000 0.00000000 0.00019990 615.00000000 -999
0.39875155 0.91440000 -0.03540227 -0.02288000 332.88610000 0.00000000 266.95912000 0.00000000 0.00019990 615.00000000 -999
0.39498626 0.91440000 -0.03552850 -0.02516000 334.06890000 0.00000000 266.95803000 0.00000000 0.00019990 615.00000000 -999
0.39122071 0.91440000 -0.03565144 -0.02742000 335.24300000 0.00000000 266.95696000 0.00000000 0.00019990 615.00000000 -999
0.38745541 0.91440000 -0.03577107 -0.02963000 336.41720000 0.00000000 266.95591000 0.00000000 0.00019990 615.00000000 -999
0.38368961 0.91440000 -0.03588690 -0.03180000 337.59250000 0.00000000 266.95489000 0.00000000 0.00019990 615.00000000 -999
0.37992406 0.91440000 -0.03599917 -0.03394000 338.76170000 0.00000000 266.95388000 0.00000000 0.00019990 615.00000000 -999
0.37615825 0.91440000 -0.03610788 -0.03605000 339.92770000 0.00000000 266.95288000 0.00000000 0.00019990 615.00000000 -999
0.37239219 0.91440000 -0.03621303 -0.03812000 341.09370000 0.00000000 266.95190000 0.00000000 0.00019990 615.00000000 -999
0.36862614 0.91440000 -0.03631463 -0.04017000 342.26450000 0.00000000 266.95094000 0.00000000 0.00019990 615.00000000 -999
0.36486008 0.91440000 -0.03641217 -0.04218000 343.43760000 0.00000000 266.94999000 0.00000000 0.00019990 615.00000000 -999
0.36109377 0.91440000 -0.03650640 -0.04416000 344.61370000 0.00000000 266.94906000 0.00000000 0.00019990 615.00000000 -999
0.35732745 0.91440000 -0.03659657 -0.04610000 345.78770000 0.00000000 266.94815000 0.00000000 0.00019990 615.00000000 -999
0.35356114 0.91440000 -0.03668293 -0.04804000 346.97420000 0.00000000 266.94724000 0.00000000 0.00019990 615.00000000 -999
0.34979458 0.91440000 -0.03676574 -0.04997000 348.17670000 0.00000000 266.94634000 0.00000000 0.00019990 615.00000000 -999
0.34602801 0.91440000 -0.03684448 -0.05184000 349.37810000 0.00000000 266.94546000 0.00000000 0.00019990 615.00000000 -999
0.34226144 0.91440000 -0.03691941 -0.05370000 350.58470000 0.00000000 266.94460000 0.00000000 0.00019990 615.00000000 -999
0.33849462 0.91440000 -0.03699002 -0.05554000 351.79940000 0.00000000 266.94374000 0.00000000 0.00019990 615.00000000 -999
0.33472780 0.91440000 -0.03705682 -0.05736000 353.02880000 0.00000000 266.94289000 0.00000000 0.00019990 615.00000000 -999
0.33096098 0.91440000 -0.03711956 -0.05915000 354.26670000 0.00000000 266.94206000 0.00000000 0.00019990 615.00000000 -999
0.32719416 0.91440000 -0.03717823 -0.06092000 355.51020000 0.00000000 266.94124000 0.00000000 0.00019990 615.00000000 -999
0.32342709 0.91440000 -0.03723259 -0.06268000 356.77430000 0.00000000 266.94042000 0.00000000 0.00019990 615.00000000 -999
0.31966002 0.91440000 -0.03728263 -0.06441000 358.04850000 0.00000000 266.93963000 0.00000000 0.00019990 615.00000000 -999
0.31589294 0.91440000 -0.03732809 -0.06611000 359.32860000 0.00000000 266.93885000 0.00000000 0.00019990 615.00000000 -999
0.31212561 0.91440000 -0.03736950 -0.06781000 360.63170000 0.00000000 266.93806000 0.00000000 0.00019990 615.00000000 -999
0.30835854 0.91440000 -0.03740607 -0.06948000 361.94470000 0.00000000 266.93730000 0.00000000 0.00019990 615.00000000 -999
0.30459121 0.91440000 -0.03743833 -0.07112000 363.26820000 0.00000000 266.93655000 0.00000000 0.00019990 615.00000000 -999
0.30082388 0.91440000 -0.03746576 -0.07276000 364.61310000 0.00000000 266.93581000 0.00000000 0.00019990 615.00000000 -999
0.29705656 0.91440000 -0.03748837 -0.07435000 365.96450000 0.00000000 266.93508000 0.00000000 0.00019990 615.00000000 -999
0.29328923 0.91440000 -0.03750640 -0.07594000 367.33870000 0.00000000 266.93436000 0.00000000 0.00019990 615.00000000 -999
0.28952190 0.91440000 -0.03751936 -0.07750000 368.72850000 0.00000000 266.93366000 0.00000000 0.00019990 615.00000000 -999
0.28575457 0.91440000 -0.03752698 -0.07902000 370.12710000 0.00000000 266.93298000 0.00000000 0.00019990 615.00000000 -999
0.28198699 0.91440000 -0.03752977 -0.08054000 371.54620000 0.00000000 266.93230000 0.00000000 0.00019990 615.00000000 -999
0.27821966 0.91440000 -0.03752748 -0.08202000 372.97240000 0.00000000 266.93164000 0.00000000 0.00019990 615.00000000 -999
0.27445233 0.91440000 -0.03751961 -0.08348000 374.42540000 0.00000000 266.93099000 0.00000000 0.00019990 615.00000000 -999
0.27068501 0.91440000 -0.03750615 -0.08491000 375.89050000 0.00000000 266.93035000 0.00000000 0.00019990 615.00000000 -999
0.26691768 0.91440000 -0.03748735 -0.08630000 377.36510000 0.00000000 266.92974000 0.00000000 0.00019990 615.00000000 -999
0.26315035 0.91440000 -0.03746271 -0.08769000 378.86710000 0.00000000 266.92914000 0.00000000 0.00019990 615.00000000 -999
0.25938302 0.91440000 -0.03743223 -0.08901000 380.37570000 0.00000000 266.92856000 0.00000000 0.00019990 615.00000000 -999
0.25561569 0.91440000 -0.03739591 -0.09033000 381.91460000 0.00002000 266.92799000 0.00000000 0.00019990 615.00000000 -999
0.25184862 0.91440000 -0.03735349 -0.09160000 383.46910000 0.00003000 266.90082000 0.00000000 0.00019990 615.00000000 -999
0.24808155 0.91440000 -0.03730473 -0.09282000 385.03710000 0.00004000 266.90030000 0.00000000 0.00019990 615.00000000 -999
0.24431447 0.91440000 -0.03724961 -0.09404000 386.63990000 0.00006000 266.92642000 0.00000000 0.00019990 615.00000000 -999
0.24054765 0.91440000 -0.03718789 -0.09517000 388.25140000 0.00007000 266.89729000 0.00000000 0.00019990 615.00000000 -999
0.23678083 0.91440000 -0.03711956 -0.09630000 389.90050000 0.00010000 266.85132000 0.00000000 0.00019990 615.00000000 -999
0.23301427 0.91440000 -0.03704438 -0.09737000 391.57360000 0.00016000 266.84592000 0.00000000 0.00019990 615.00000000 -999
0.22924770 0.91440000 -0.03696208 -0.09836000 393.26020000 0.00022000 266.84666000 0.00000000 0.00019990 615.00000000 -999
0.22548139 0.91440000 -0.03687267 -0.09935000 394.99460000 0.00028000 266.82453000 0.00000000 0.00019990 615.00000000 -999
0.22171533 0.91440000 -0.03677615 -0.10025000 396.74910000 0.00034000 266.80183000 0.00000000 0.00019990 615.00000000 -999
0.21794927 0.91440000 -0.03667176 -0.10109000 398.53080000 0.00041000 266.77887000 0.00000000 0.00019990 615.00000000 -999
0.21418347 0.91440000 -0.03655974 -0.10190000 400.35990000 0.00047000 266.75565000 0.00000000 0.00019990 615.00000000 -999
0.21041817 0.91440000 -0.03643986 -0.10262000 402.21260000 0.00054000 266.73189000 0.00000000 0.00019990 615.00000000 -999
0.20665288 0.91440000 -0.03631159 -0.10326000 404.09480000 0.00061000 266.70786000 0.00000000 0.00019990 615.00000000 -999
0.20288783 0.91440000 -0.03617519 -0.10387000 406.02550000 0.00073000 266.66560000 0.00000000 0.00019990 615.00000000 -999
0.19912330 0.91440000 -0.03603015 -0.10436000 407.98340000 0.00092000 266.60115000 0.00000000 0.00019990 615.00000000 -999
0.19535902 0.91440000 -0.03587623 -0.10477000 409.96530000 0.00112000 266.53241000 0.00000000 0.00019990 615.00000000 -999
0.19159525 0.91440000 -0.03571342 -0.10512000 411.99020000 0.00133000 266.46268000 0.00000000 0.00019990 615.00000000 -999
0.18783173 0.91440000 -0.03554146 -0.10537000 414.05290000 0.00154000 266.39130000 0.00000000 0.00019990 615.00000000 -999
0.18406872 0.91440000 -0.03535959 -0.10550000 416.13900000 0.00177000 266.31827000 0.00000000 0.00019990 615.00000000 -999
0.18030622 0.91440000 -0.03516808 -0.10552000 418.25380000 0.00199000 266.24415000 0.00000000 0.00019990 615.00000000 -999
0.17654422 0.91440000 -0.03496666 -0.10545000 420.40530000 0.00223000 266.16762000 0.00000000 0.00019990 615.00000000 -999
0.17278274 0.91440000 -0.03475457 -0.10526000 422.59100000 0.00255000 266.06380000 0.00000000 0.00019990 615.00000000 -999
0.16902201 0.91440000 -0.03453206 -0.10496000 424.82060000 0.00295000 265.93317000 0.00000000 0.00019990 615.00000000 -999
0.16526180 0.91440000 -0.03429864 -0.10450000 427.08660000 0.00337000 265.79919000 0.00000000 0.00019990 615.00000000 -999
0.16150234 0.91440000 -0.03405353 -0.10390000 429.38840000 0.00380000 265.66222000 0.00000000 0.00019990 615.00000000 -999
0.15774365 0.91440000 -0.03379699 -0.10315000 431.73430000 0.00429000 265.50849000 0.00000000 0.00019990 615.00000000 -999
0.15398598 0.91440000 -0.03352851 -0.10223000 434.12480000 0.00484000 265.42773000 0.50000000 0.00019990 615.00000000 -999
0.15022906 0.91440000 -0.03324784 -0.10114000 436.57050000 0.00541000 265.43978000 1.00000000 0.00019990 615.00000000 -999
0.14647316 0.91440000 -0.03295421 -0.09988000 439.07640000 0.00607000 265.45809000 1.00000000 0.00019990 615.00000000 -999
0.14271828 0.91440000 -0.03264738 -0.09841000 441.64000000 0.00682000 265.47889000 1.00000000 0.00019990 615.00000000 -999
0.13896442 0.91440000 -0.03232709 -0.09672000 444.25990000 0.00759000 265.50058000 1.00000000 0.00019990 615.00000000 -999
0.13521182 0.91440000 -0.03199282 -0.09484000 446.95170000 0.00845000 265.52434000 1.00000000 0.00019990 615.00000000 -999
0.13146075 0.91440000 -0.03164383 -0.09269000 449.69850000 0.00942000 265.55122000 1.00000000 0.00019990 615.00000000 -999
0.12771095 0.91440000 -0.03128010 -0.09024000 452.47870000 0.01047000 265.58004000 1.00000000 0.00019990 615.00000000 -999
0.12396267 0.91440000 -0.03090062 -0.08755000 455.28630000 0.01154000 265.60981000 1.00000000 0.00019990 615.00000000 -999
0.12034266 0.91440000 -0.03051886 -0.08468000 458.04640000 0.01274000 265.64245000 1.00000000 0.00019990 615.00000000 -999
0.11689664 0.91440000 -0.03014091 -0.08166000 460.72140000 0.01403000 265.67738000 1.00000000 0.00019990 615.00000000 -999
0.11361623 0.91440000 -0.02976728 -0.07854000 463.33960000 0.01530000 265.71178000 1.00000000 0.00019990 615.00000000 -999
0.11049356 0.91440000 -0.02939898 -0.07526000 465.84460000 0.01657000 265.74603000 1.00000000 0.00019990 615.00000000 -999
0.10752074 0.91440000 -0.02903601 -0.07189000 468.25480000 0.01783000 265.78000000 1.00000000 0.00019990 615.00000000 -999
0.10469118 0.91440000 -0.02867939 -0.06848000 470.61810000 0.01919000 265.81616000 1.00000000 0.00019990 615.00000000 -999
0.10199751 0.91440000 -0.02832938 -0.06494000 472.87660000 0.02065000 265.85464000 1.00000000 0.00019990 615.00000000 -999
0.09943338 0.91440000 -0.02798623 -0.06134000 475.04210000 0.02208000 265.89234000 1.00000000 0.00019990 615.00000000 -999
0.09699269 0.91440000 -0.02765019 -0.05774000 477.16810000 0.02348000 265.92896000 1.00000000 0.00019990 615.00000000 -999
0.09466936 0.91440000 -0.02732202 -0.05408000 479.23720000 0.02486000 265.96506000 1.00000000 0.00019990 615.00000000 -999
0.09245778 0.91440000 -0.02700147 -0.05034000 481.22600000 0.02622000 266.00066000 1.00000000 0.00019990 615.00000000 -999
0.09035263 0.91440000 -0.02668880 -0.04657000 482.98750000 0.02763000 266.03756000 1.00000000 0.00019990 615.00000000 -999
0.08834882 0.91440000 -0.02638425 -0.04377000 485.18290000 0.02916000 266.07440000 1.00000000 0.00019990 615.00000000 -999
0.08644128 0.91440000 -0.02608758 -0.03949000 487.32710000 0.03073000 266.11470000 1.00000000 0.00019990 615.00000000 -999
0.08453603 0.91440000 -0.02578506 -0.03489000 488.95050000 0.03233000 266.15652000 1.00000000 0.00019990 615.00000000 -999
0.08263153 0.91440000 -0.02547569 -0.03161000 490.93010000 0.03396000 266.19604000 1.00000000 0.00019990 615.00000000 -999
0.08072831 0.91440000 -0.02515997 -0.02738000 493.01200000 0.03565000 266.23782000 1.00000000 0.00019990 615.00000000 -999
0.07882636 0.91440000 -0.02483714 -0.02292000 495.00670000 0.03738000 266.28090000 1.00000000 0.00019990 615.00000000 -999
0.07692542 0.91440000 -0.02450744 -0.01821000 497.03470000 0.03916000 266.32524000 1.00000000 0.00019990 615.00000000 -999
0.07502601 0.91440000 -0.02417039 -0.01327000 499.08450000 0.04100000 266.37074000 1.00000000 0.00019990 615.00000000 -999
0.07312762 0.91440000 -0.02382571 -0.00811000 501.17690000 0.04299000 266.41966000 1.00000000 0.00019990 615.00000000 -999
0.07123074 0.91440000 -0.02347366 -0.00267000 503.28190000 0.04526000 266.47439000 1.00000000 0.00019990 615.00000000 -999
0.06933540 0.91440000 -0.02311349 0.00301000 505.43460000 0.04769000 266.53253000 1.00000000 0.00019990 615.00000000 -999
0.06744157 0.91440000 -0.02274545 0.00897000 507.62250000 0.05021000 266.59254000 1.00000000 0.00019990 615.00000000 -999
0.06554953 0.91440000 -0.02236876 0.01525000 509.84880000 0.05282000 266.65446000 1.00000000 0.00019990 615.00000000 -999
0.06365926 0.91440000 -0.02198345 0.02187000 512.08880000 0.05552000 266.71843000 1.00000000 0.00019990 615.00000000 -999
0.06177077 0.91440000 -0.02158924 0.02885000 514.31770000 0.05832000 266.78441000 1.00000000 0.00019990 615.00000000 -999
0.05988406 0.91440000 -0.02118563 0.03615000 516.58480000 0.06121000 266.85218000 1.00000000 0.00019990 615.00000000 -999
0.05799963 0.91440000 -0.02077263 0.04385000 518.87210000 0.06422000 266.92246000 1.00000000 0.00019990 615.00000000 -999
0.05611724 0.91440000 -0.02034972 0.05197000 521.19620000 0.06744000 266.99712000 1.00000000 0.00019990 615.00000000 -999
0.05423713 0.91440000 -0.01991639 0.06057000 523.53840000 0.07113000 267.08134000 1.00000000 0.00019990 615.00000000 -999
0.05235981 0.91440000 -0.01947240 0.06968000 525.88320000 0.07521000 267.17353000 1.00000000 0.00019990 615.00000000 -999
0.05048504 0.91440000 -0.01901698 0.07929000 528.25260000 0.07946000 267.26896000 1.00000000 0.00019990 615.00000000 -999
0.04861306 0.91440000 -0.01855038 0.08941000 530.68400000 0.08389000 267.36789000 1.00000000 0.00019990 615.00000000 -999
0.04674413 0.91440000 -0.01807134 0.10017000 533.14970000 0.08854000 267.47117000 1.00000000 0.00019990 615.00000000 -999
0.04487875 0.91440000 -0.01757985 0.11159000 535.65640000 0.09343000 267.57887000 1.00000000 0.00019990 615.00000000 -999
0.04301668 0.91440000 -0.01707490 0.12379000 538.16090000 0.09855000 267.69155000 1.00000000 0.00019990 615.00000000 -999
0.04115841 0.91440000 -0.01655597 0.13676000 540.68540000 0.10391000 267.80885000 1.00000000 0.00019990 615.00000000 -999
0.03930447 0.91440000 -0.01602283 0.15050000 543.30160000 0.10953000 267.93088000 1.00000000 0.00019990 615.00000000 -999
0.03745484 0.91440000 -0.01547393 0.16521000 545.94910000 0.11560000 268.06153000 1.00000000 0.00019990 615.00000000 -999
0.03561029 0.91440000 -0.01490878 0.18101000 548.56440000 0.12260000 268.21006000 1.00000000 0.00019990 615.00000000 -999
0.03377108 0.91440000 -0.01432662 0.19802000 551.07270000 0.13047000 268.37539000 1.00000000 0.00019990 615.00000000 -999
0.03193771 0.91440000 -0.01372591 0.21620000 553.51840000 0.13879000 268.54934000 1.00000000 0.00019990 615.00000000 -999
0.03011068 0.91440000 -0.01310589 0.23569000 555.91200000 0.14767000 268.73389000 1.00000000 0.00019990 615.00000000 -999
0.02829103 0.91440000 -0.01246505 0.25689000 558.06610000 0.15723000 268.93250000 1.00000000 0.00019990 615.00000000 -999
0.02647925 0.91440000 -0.01180186 0.27998000 559.88960000 0.16746000 270.09287000 1.00000000 0.00019990 615.00000000 -999
0.02467661 0.91440000 -0.01111453 0.30493000 561.54930000 0.17839000 272.15007000 0.87619000 0.00019990 615.00000000 -999
0.02288388 0.91440000 -0.01040155 0.33199000 562.97460000 0.19018000 273.15000000 0.64235000 0.00019990 615.00000000 -999
0.02110283 0.91440000 -0.00966013 0.36184000 563.73470000 0.20441000 273.15000000 0.47497000 0.00019990 615.00000000 -999
0.01933499 0.91440000 -0.00888797 0.39477000 563.44680000 0.22151000 273.15000000 0.38312000 0.00019990 615.00000000 -999
0.01758213 0.91440000 -0.00808177 0.43077000 562.01170000 0.24045000 273.15000000 0.32605000 0.00019990 615.00000000 -999
0.01584681 0.91440000 -0.00723849 0.47064000 559.02470000 0.26144000 273.15000000 0.28787000 0.00019990 615.00000000 -999
0.01413281 0.91440000 -0.00635330 0.51535000 553.32180000 0.28477000 273.15000000 0.26110000 0.00019990 615.00000000 -999
0.01244371 0.91440000 -0.00542112 0.56480000 543.97130000 0.31051000 273.15000000 0.24206000 0.00019990 615.00000000 -999
0.01078459 0.91440000 -0.00443662 0.61997000 528.74980000 0.33939000 273.15000000 0.22847000 0.00019990 615.00000000 -999
0.00916330 0.91440000 -0.00339090 0.68199000 504.00930000 0.37297000 273.15000000 0.21894000 0.00019990 615.00000000 -999
0.00758952 0.91440000 -0.00227508 0.75071000 465.06780000 0.41123000 273.15000000 0.21217000 0.00019990 615.00000000 -999
0.00608990 0.91440000 -0.00108991 0.82415000 409.74740000 0.45336000 273.15000000 0.20235000 0.00019990 615.00000000 -999
0.00480009 0.91440000 0.00006477 0.89461000 351.63440000 0.49675000 273.15000000 0.19766000 0.00019990 615.00000000 -999
0.00369697 0.91440000 0.00119380 0.95566000 317.31460000 0.53925000 273.15000000 0.21937000 0.00019990 615.00000000 -999
0.00278587 0.91440000 0.00227736 1.00152000 314.44430000 0.57895000 273.15000000 0.29551000 0.00019990 615.00000000 -999
0.00203479 0.91440000 0.00333756 1.02486000 328.16900000 0.61543000 273.15000000 0.37018000 0.00019990 615.00000000 -999
0.00143078 0.91440000 0.00437439 1.01748000 347.77670000 0.64833000 273.15000000 0.32591000 0.00019990 615.00000000 -999
0.00096749 0.91440000 0.00538150 0.97149000 388.85210000 0.67408000 273.15000000 0.23467000 0.00019990 615.00000000 -999
0.00063322 0.91440000 0.00636778 0.88050000 491.63980000 0.68923000 273.15000000 0.20497000 0.00019990 615.00000000 -999
0.00041681 0.91440000 0.00735254 0.74239000 653.39030000 0.69275000 273.15000000 0.21479000 0.00019990 615.00000000 -999
0.00031420 0.91440000 0.00833704 0.55680000 821.13340000 0.68213000 273.15000000 0.23970000 0.00019990 615.00000000 -999
0.00032487 0.91440000 0.00930199 0.32832000 956.79940000 0.65476000 273.15000000 0.27489000 0.00019990 615.00000000 -999
0.00044780 0.91440000 0.01025449 0.07406000 1061.38100000 0.61305000 273.15000000 0.33138000 0.00019990 615.00000000 -999
0.00068453 0.91440000 0.01121080 -0.19290000 1139.34600000 0.56143000 273.15000000 0.42339000 0.00019990 615.00000000 -999
0.00103302 0.91440000 0.01215161 -0.46044000 1189.86600000 0.50248000 273.15000000 0.59346000 0.00019990 615.00000000 -999
0.00149682 0.91440000 0.01307719 -0.70466000 1211.07300000 0.43707000 271.78122000 0.85331000 0.00019990 615.00000000 -999
0.00209118 0.91440000 0.01400734 -0.91156000 1204.59900000 0.37019000 268.61298000 1.00000000 0.00019990 615.00000000 -999
0.00282778 0.91440000 0.01494688 -1.08102000 1183.24900000 0.31076000 266.48681000 1.00000000 0.00019990 615.00000000 -999
0.00371246 0.91440000 0.01588922 -1.21361000 1152.46200000 0.25705000 265.86464000 1.00000000 0.00019990 615.00000000 -999
0.00475437 0.91440000 0.01683004 -1.30777000 1111.46700000 0.20859000 265.34190000 1.00000000 0.00019990 615.00000000 -999
0.00599084 0.91440000 0.01778965 -1.36680000 1064.51200000 0.16714000 264.91854000 1.00000000 0.00019990 615.00000000 -999
0.00741604 0.91440000 0.01875028 -1.40153000 1021.77400000 0.13088000 264.54827000 1.00000000 0.00019990 615.00000000 -999
0.00904799 0.91440000 0.01971040 -1.41419000 981.25920000 0.10105000 264.24976000 1.00000000 0.00019990 615.00000000 -999
0.01075131 0.91440000 0.02059610 -1.40922000 943.27200000 0.07831000 264.03418000 1.00000000 0.00019990 615.00000000 -999
0.01249197 0.91440000 0.02140585 -1.39702000 911.31560000 0.06135000 263.87575000 1.00000000 0.00019990 615.00000000 -999
0.01426185 0.91440000 0.02215007 -1.37894000 882.30350000 0.04818000 263.75949000 1.00000000 0.00019990 615.00000000 -999
0.01605407 0.91440000 0.02283816 -1.35844000 856.84330000 0.03835000 263.67902000 1.00000000 0.00019990 615.00000000 -999
0.01786484 0.91440000 0.02347646 -1.33801000 834.86960000 0.03056000 263.61754000 1.00000000 0.00019990 615.00000000 -999
0.01969059 0.91440000 0.02407031 -1.31644000 814.47610000 0.02437000 263.57465000 1.00000000 0.00019990 615.00000000 -999
0.02152853 0.91440000 0.02462479 -1.29493000 796.14420000 0.01959000 263.54730000 1.00000000 0.00019990 615.00000000 -999
0.02337689 0.91440000 0.02514397 -1.27454000 779.80140000 0.01568000 263.62433000 0.50000000 0.00019990 615.00000000 -999
0.02523388 0.91440000 0.02563063 -1.25468000 764.56350000 0.01256000 263.94739000 0.00000000 0.00019990 615.00000000 -999
0.02709875 0.91440000 0.02608758 -1.23496000 750.25000000 0.01015000 264.37377000 0.00000000 0.00019990 615.00000000 -999
0.02896972 0.91440000 0.02651785 -1.21611000 737.32790000 0.00814000 264.74058000 0.00000000 0.00019990 615.00000000 -999
0.03084627 0.91440000 0.02692298 -1.19830000 725.65950000 0.00651000 265.04521000 0.00000000 0.00019990 615.00000000 -999
0.03272790 0.91440000 0.02730500 -1.18103000 714.72410000 0.00534000 265.27082000 0.00000000 0.00019990 615.00000000 -999
0.03461360 0.91440000 0.02766517 -1.16420000 704.39830000 0.00438000 265.45794000 0.00000000 0.00019990 615.00000000 -999
0.03650310 0.91440000 0.02800553 -1.14809000 694.77370000 0.00350000 265.63774000 0.00000000 0.00019990 615.00000000 -999
0.03839566 0.91440000 0.02832710 -1.13280000 685.78690000 0.00265000 265.81246000 0.00000000 0.00019990 615.00000000 -999
0.04029151 0.91440000 0.02863063 -1.11801000 677.14080000 0.00206000 265.93876000 0.00000000 0.00019990 615.00000000 -999
0.04218965 0.91440000 0.02891739 -1.10365000 668.82490000 0.00174000 266.00945000 0.00000000 0.00019990 615.00000000 -999
0.04409034 0.91440000 0.02918841 -1.08973000 660.85840000 0.00148000 266.06932000 0.00000000 0.00019990 615.00000000 -999
0.04599305 0.91440000 0.02944444 -1.07644000 653.35460000 0.00123000 266.12765000 0.00000000 0.00019990 615.00000000 -999
0.04789754 0.91440000 0.02968625 -1.06361000 646.18380000 0.00099000 266.18466000 0.00000000 0.00019990 615.00000000 -999
0.04980407 0.91440000 0.02991434 -1.05109000 639.29350000 0.00076000 266.24015000 0.00000000 0.00019990 615.00000000 -999
0.05171161 0.91440000 0.03012948 -1.03895000 632.74740000 0.00055000 266.29423000 0.00000000 0.00019990 615.00000000 -999