#++++++++++++++++++++++++++++++++++++++++++++++++++++++++++++++++++++++++++++++++++++++++++++++++++++++++++++++++++++
#
#   IPW-3 Ice Shape DATA SUBMITTAL FORM for Test Case ONERAM6, May 18th 2026
#
#       NOMENCLATURE:
#             X_ICED [m]:  X-coordinate of the iced surface
#             Y_ICED [m]:  Y-coordinate of the iced surface
#             Z_ICED [m]:  Z-coordinate of the iced surface
#
#                XXmm:  Roughness height used for the case, in mm.
#                       In the zone name, use the format KS_XXmm.
#                       For example, if k_s = 1.5 mm, use KS_1p5mm. 
#                       For Variable roughness, use KS_VAR
#
#    FLOW CONDITIONS:
#                                   AOA: 2.0 deg
#                           Mach Number: 0.4 [-]
#       Mean aerodynamic chord (M.A.C.): 0.801673 [m]
#                       Reynolds Number: 4.2558 million (based on MAC)
#                       Freestream Temp: 267.15 [K]
#                        Reference area: 1.1532 [m2]
#               Moment Reference Center: 0.25, 0, 0 [m] (X, Y, Z)
#
#              NOTES: 1. Please use at least 5 decimal places in the numerical values
#                     2. If data are NOT provided, please fill data fields with a numerical value of "-999" 
#
#++++++++++++++++++++++++++++++++++++++++++++++++++++++++++++++++++++++++++++++++++++++++++++++++++++++++++++++++++++

AUXDATA NUM_LAYERS  = "insert the number of total ice layers"
VARIABLES = "X_ICED" "Y_ICED" "Z_ICED"

ZONE T="SLICE_Y_0p1_BINS01_KS_1mm_SINGLE_LAYER"
1.028090000E+00 1.000000015E-01 0.000000000E+00
1.028083801E+00 1.000000015E-01 1.193435764E-06
1.028083444E+00 1.000000015E-01 1.253136247E-06
1.028064966E+00 1.000000015E-01 3.643260015E-06
1.028064013E+00 1.000000015E-01 3.762823781E-06
1.028032899E+00 1.000000015E-01 7.755048500E-06
1.028031349E+00 1.000000015E-01 7.954755347E-06
1.027987719E+00 1.000000015E-01 1.356214761E-05
1.027985573E+00 1.000000015E-01 1.384265215E-05
1.027929187E+00 1.000000015E-01 2.108358967E-05
1.027926445E+00 1.000000015E-01 2.144581049E-05
1.027857065E+00 1.000000015E-01 3.034405199E-05
1.027853608E+00 1.000000015E-01 3.078917871E-05
1.027771235E+00 1.000000015E-01 4.137398355E-05
1.027767181E+00 1.000000015E-01 4.190348045E-05
1.027671456E+00 1.000000015E-01 5.420971502E-05
1.027666569E+00 1.000000015E-01 5.482532288E-05
1.027557135E+00 1.000000015E-01 6.889362703E-05
1.027551651E+00 1.000000015E-01 6.959737948E-05
1.027428150E+00 1.000000015E-01 8.547433390E-05
1.027422071E+00 1.000000015E-01 8.626856288E-05
1.027284026E+00 1.000000015E-01 1.040068964E-04
1.027277112E+00 1.000000015E-01 1.048942358E-04
1.027124047E+00 1.000000015E-01 1.245530148E-04
1.027116418E+00 1.000000015E-01 1.255364332E-04
1.026947975E+00 1.000000015E-01 1.471813448E-04
1.026939631E+00 1.000000015E-01 1.482641092E-04
1.026755095E+00 1.000000015E-01 1.719676948E-04
1.026745915E+00 1.000000015E-01 1.731534430E-04
1.026544571E+00 1.000000015E-01 1.989954471E-04
1.026534557E+00 1.000000015E-01 2.002881665E-04
1.026316047E+00 1.000000015E-01 2.283557114E-04
1.026305079E+00 1.000000015E-01 2.297597675E-04
1.026068449E+00 1.000000015E-01 2.601478482E-04
1.026056647E+00 1.000000015E-01 2.616679994E-04
1.025801063E+00 1.000000015E-01 2.944797452E-04
1.025788307E+00 1.000000015E-01 2.961211139E-04
1.025512815E+00 1.000000015E-01 3.314681235E-04
1.025499105E+00 1.000000015E-01 3.332363267E-04
1.025202870E+00 1.000000015E-01 3.712390899E-04
1.025188088E+00 1.000000015E-01 3.731401521E-04
1.024869919E+00 1.000000015E-01 4.139284138E-04
1.024853945E+00 1.000000015E-01 4.159687960E-04
1.024512768E+00 1.000000015E-01 4.596819927E-04
1.024495721E+00 1.000000015E-01 4.618686798E-04
1.024130344E+00 1.000000015E-01 5.086560850E-04
1.024111986E+00 1.000000015E-01 5.109966150E-04
1.023721099E+00 1.000000015E-01 5.610179505E-04
1.023701549E+00 1.000000015E-01 5.635201815E-04
1.023283482E+00 1.000000015E-01 6.169459084E-04
1.023262620E+00 1.000000015E-01 6.196185132E-04
1.022815943E+00 1.000000015E-01 6.766300648E-04
1.022793651E+00 1.000000015E-01 6.794820656E-04
1.022316813E+00 1.000000015E-01 7.402749034E-04
1.022292972E+00 1.000000015E-01 7.433159626E-04
1.021784067E+00 1.000000015E-01 8.081021952E-04
1.021758676E+00 1.000000015E-01 8.113430231E-04
1.021215916E+00 1.000000015E-01 8.803519304E-04
1.021188736E+00 1.000000015E-01 8.838040521E-04
1.020609856E+00 1.000000015E-01 9.572819690E-04
1.020580888E+00 1.000000015E-01 9.609576664E-04
1.019963741E+00 1.000000015E-01 1.039168565E-03
1.019932866E+00 1.000000015E-01 1.043080934E-03
1.019275069E+00 1.000000015E-01 1.126307761E-03
1.019242167E+00 1.000000015E-01 1.130471122E-03
1.018541098E+00 1.000000015E-01 1.219016616E-03
1.018506050E+00 1.000000015E-01 1.223445986E-03
1.017758846E+00 1.000000015E-01 1.317634480E-03
1.017721534E+00 1.000000015E-01 1.322346157E-03
1.016925216E+00 1.000000015E-01 1.422525267E-03
1.016885400E+00 1.000000015E-01 1.427536597E-03
1.016037107E+00 1.000000015E-01 1.534078154E-03
1.015994668E+00 1.000000015E-01 1.539407764E-03
1.015090585E+00 1.000000015E-01 1.652710023E-03
1.015045404E+00 1.000000015E-01 1.658377936E-03
1.014082074E+00 1.000000015E-01 1.778867794E-03
1.014033914E+00 1.000000015E-01 1.784895197E-03
1.013007402E+00 1.000000015E-01 1.913029817E-03
1.012956142E+00 1.000000015E-01 1.919439528E-03
1.011862040E+00 1.000000015E-01 2.055709017E-03
1.011807323E+00 1.000000015E-01 2.062525833E-03
1.010641456E+00 1.000000015E-01 2.207455458E-03
1.010583162E+00 1.000000015E-01 2.214705572E-03
1.009340405E+00 1.000000015E-01 2.368860180E-03
1.009278297E+00 1.000000015E-01 2.376571763E-03
1.007953644E+00 1.000000015E-01 2.540557180E-03
1.007887363E+00 1.000000015E-01 2.548760502E-03
1.006475329E+00 1.000000015E-01 2.723229351E-03
1.006404638E+00 1.000000015E-01 2.731956774E-03
1.004899263E+00 1.000000015E-01 2.917611971E-03
1.004823923E+00 1.000000015E-01 2.926899120E-03
1.003218889E+00 1.000000015E-01 3.124498995E-03
1.003138542E+00 1.000000015E-01 3.134383820E-03
1.001427054E+00 1.000000015E-01 3.344748868E-03
1.001341462E+00 1.000000015E-01 3.355272347E-03
9.995164275E-01 1.000000015E-01 3.579292912E-03
9.994251728E-01 1.000000015E-01 3.590499284E-03
9.974789619E-01 1.000000015E-01 3.829143010E-03
9.973815680E-01 1.000000015E-01 3.841080936E-03
9.953061938E-01 1.000000015E-01 4.095403478E-03
9.952023625E-01 1.000000015E-01 4.108125810E-03
9.929890633E-01 1.000000015E-01 4.379284568E-03
9.928783178E-01 1.000000015E-01 4.392848816E-03
9.905180335E-01 1.000000015E-01 4.682114348E-03
9.903999567E-01 1.000000015E-01 4.696584772E-03
9.878829718E-01 1.000000015E-01 5.005361978E-03
9.877570271E-01 1.000000015E-01 5.020808429E-03
9.850730300E-01 1.000000015E-01 5.350657273E-03
9.849388003E-01 1.000000015E-01 5.367157515E-03
9.820770025E-01 1.000000015E-01 5.719770212E-03
9.819338918E-01 1.000000015E-01 5.737409461E-03
9.788829684E-01 1.000000015E-01 6.114387885E-03
9.787303209E-01 1.000000015E-01 6.133246236E-03
9.754782319E-01 1.000000015E-01 6.535839289E-03
9.753155708E-01 1.000000015E-01 6.555978674E-03
9.718495607E-01 1.000000015E-01 6.985154003E-03
9.716761708E-01 1.000000015E-01 7.006622851E-03
9.679833055E-01 1.000000015E-01 7.463392336E-03
9.677985311E-01 1.000000015E-01 7.486241870E-03
9.638649225E-01 1.000000015E-01 7.971837185E-03
9.636681080E-01 1.000000015E-01 7.996127941E-03
9.594793320E-01 1.000000015E-01 8.511860855E-03
9.592697620E-01 1.000000015E-01 8.537659422E-03
9.548109770E-01 1.000000015E-01 9.084716439E-03
9.545879364E-01 1.000000015E-01 9.112082422E-03
9.498437047E-01 1.000000015E-01 9.691439569E-03
9.496064186E-01 1.000000015E-01 9.720421396E-03
9.445610046E-01 1.000000015E-01 1.033288799E-02
9.443085790E-01 1.000000015E-01 1.036352571E-02
9.389458299E-01 1.000000015E-01 1.100980584E-02
9.386775494E-01 1.000000015E-01 1.104213484E-02
9.329808354E-01 1.000000015E-01 1.172280591E-02
9.326958656E-01 1.000000015E-01 1.175685506E-02
9.266484976E-01 1.000000015E-01 1.247231476E-02
9.263459444E-01 1.000000015E-01 1.250810549E-02
9.199311137E-01 1.000000015E-01 1.325856894E-02
9.196102023E-01 1.000000015E-01 1.329611056E-02
9.128111601E-01 1.000000015E-01 1.408157218E-02
9.124710560E-01 1.000000015E-01 1.412086375E-02
9.052711725E-01 1.000000015E-01 1.494113635E-02
9.049110413E-01 1.000000015E-01 1.498216949E-02
8.972940445E-01 1.000000015E-01 1.583693735E-02
8.969130516E-01 1.000000015E-01 1.587969624E-02
8.888633847E-01 1.000000015E-01 1.676848717E-02
8.884606957E-01 1.000000015E-01 1.681294851E-02
8.799635172E-01 1.000000015E-01 1.773516275E-02
8.795384169E-01 1.000000015E-01 1.778129488E-02
8.705798388E-01 1.000000015E-01 1.873627119E-02
8.701316714E-01 1.000000015E-01 1.878404245E-02
8.606990576E-01 1.000000015E-01 1.977102831E-02
8.602272272E-01 1.000000015E-01 1.982040145E-02
8.503094912E-01 1.000000015E-01 2.083858103E-02
8.498133421E-01 1.000000015E-01 2.088951506E-02
8.394014835E-01 1.000000015E-01 2.193803899E-02
8.388806581E-01 1.000000015E-01 2.199049108E-02
8.279675245E-01 1.000000015E-01 2.306850627E-02
8.274216056E-01 1.000000015E-01 2.312243171E-02
8.160024881E-01 1.000000015E-01 2.422904409E-02
8.154312968E-01 1.000000015E-01 2.428440191E-02
8.035045266E-01 1.000000015E-01 2.541853860E-02
8.029079437E-01 1.000000015E-01 2.547527291E-02
7.904745340E-01 1.000000015E-01 2.663555741E-02
7.898525596E-01 1.000000015E-01 2.669359930E-02
7.769170403E-01 1.000000015E-01 2.787821367E-02
7.762699723E-01 1.000000015E-01 2.793747187E-02
7.628403902E-01 1.000000015E-01 2.914402448E-02
7.621685863E-01 1.000000015E-01 2.920438163E-02
7.482567430E-01 1.000000015E-01 3.042969853E-02
7.475607991E-01 1.000000015E-01 3.049099445E-02
7.331823111E-01 1.000000015E-01 3.173085675E-02
7.324630022E-01 1.000000015E-01 3.179287910E-02
7.176377773E-01 1.000000015E-01 3.304183856E-02
7.168961167E-01 1.000000015E-01 3.310431540E-02
7.016479373E-01 1.000000015E-01 3.435558453E-02
7.008851171E-01 1.000000015E-01 3.441817686E-02
6.852419972E-01 1.000000015E-01 3.566356748E-02
6.844595075E-01 1.000000015E-01 3.572586551E-02
6.684533358E-01 1.000000015E-01 3.695577383E-02
6.676526666E-01 1.000000015E-01 3.701729700E-02
6.513193846E-01 1.000000015E-01 3.822082654E-02
6.505023241E-01 1.000000015E-01 3.828103095E-02
6.338812113E-01 1.000000015E-01 3.944633156E-02
6.330497861E-01 1.000000015E-01 3.950462490E-02
6.161834598E-01 1.000000015E-01 4.061926156E-02
6.153397560E-01 1.000000015E-01 4.067501798E-02
5.982736945E-01 1.000000015E-01 4.172635823E-02
5.974199772E-01 1.000000015E-01 4.177895188E-02
5.802019835E-01 1.000000015E-01 4.275472835E-02
5.793406963E-01 1.000000015E-01 4.280354083E-02
5.620202422E-01 1.000000015E-01 4.369256273E-02
5.611538291E-01 1.000000015E-01 4.373703524E-02
5.437819362E-01 1.000000015E-01 4.452966154E-02
5.429129601E-01 1.000000015E-01 4.456930980E-02
5.255410671E-01 1.000000015E-01 4.525781050E-02
5.246720910E-01 1.000000015E-01 4.529225081E-02
5.073516965E-01 1.000000015E-01 4.587110132E-02
5.064852834E-01 1.000000015E-01 4.590005800E-02
4.892672300E-01 1.000000015E-01 4.636625201E-02
4.884059131E-01 1.000000015E-01 4.638957232E-02
4.713398814E-01 1.000000015E-01 4.674282297E-02
4.704861641E-01 1.000000015E-01 4.676049203E-02
4.536198676E-01 1.000000015E-01 4.700291529E-02
4.527761340E-01 1.000000015E-01 4.701504111E-02
4.361550510E-01 1.000000015E-01 4.715061188E-02
4.353235960E-01 1.000000015E-01 4.715739191E-02
4.189902842E-01 1.000000015E-01 4.719189927E-02
4.181732237E-01 1.000000015E-01 4.719362780E-02
4.021671414E-01 1.000000015E-01 4.713437334E-02
4.013664424E-01 1.000000015E-01 4.713141173E-02
3.857232928E-01 1.000000015E-01 4.698652402E-02
3.849407732E-01 1.000000015E-01 4.697927460E-02
3.696925938E-01 1.000000015E-01 4.675723240E-02
3.689298034E-01 1.000000015E-01 4.674612358E-02
3.541044891E-01 1.000000015E-01 4.645548016E-02
3.533628881E-01 1.000000015E-01 4.644094035E-02
3.389844298E-01 1.000000015E-01 4.609004408E-02
3.382651508E-01 1.000000015E-01 4.607249051E-02
3.243532181E-01 1.000000015E-01 4.566913098E-02
3.236573040E-01 1.000000015E-01 4.564895481E-02
3.102277219E-01 1.000000015E-01 4.520019144E-02
3.095559180E-01 1.000000015E-01 4.517774284E-02
2.966204286E-01 1.000000015E-01 4.468993098E-02
2.959733307E-01 1.000000015E-01 4.466553032E-02
2.835399806E-01 1.000000015E-01 4.414428398E-02
2.829180062E-01 1.000000015E-01 4.411821067E-02
2.709912360E-01 1.000000015E-01 4.356844723E-02
2.703946233E-01 1.000000015E-01 4.354094714E-02
2.589755952E-01 1.000000015E-01 4.296694323E-02
2.584043443E-01 1.000000015E-01 4.293822870E-02
2.474912107E-01 1.000000015E-01 4.234369844E-02
2.469452918E-01 1.000000015E-01 4.231395572E-02
2.365334034E-01 1.000000015E-01 4.170219600E-02
2.360125482E-01 1.000000015E-01 4.167159274E-02
2.260948867E-01 1.000000015E-01 4.104559496E-02
2.255987674E-01 1.000000015E-01 4.101428017E-02
2.161661237E-01 1.000000015E-01 4.037681222E-02
2.156942636E-01 1.000000015E-01 4.034492373E-02
2.067356408E-01 1.000000015E-01 3.969858959E-02
2.062874883E-01 1.000000015E-01 3.966625780E-02
1.977902800E-01 1.000000015E-01 3.901344165E-02
1.973652095E-01 1.000000015E-01 3.898078576E-02
1.893155575E-01 1.000000015E-01 3.832384571E-02
1.889128834E-01 1.000000015E-01 3.829098493E-02
1.812959462E-01 1.000000015E-01 3.763225302E-02
1.809149235E-01 1.000000015E-01 3.759929910E-02
1.737150252E-01 1.000000015E-01 3.694099188E-02
1.733548641E-01 1.000000015E-01 3.690806031E-02
1.665557921E-01 1.000000015E-01 3.625234962E-02
1.662156731E-01 1.000000015E-01 3.621954843E-02
1.598008275E-01 1.000000015E-01 3.556850180E-02
1.594799310E-01 1.000000015E-01 3.553593531E-02
1.534325629E-01 1.000000015E-01 3.489144892E-02
1.531300545E-01 1.000000015E-01 3.485921025E-02
1.474333405E-01 1.000000015E-01 3.422312438E-02
1.471483707E-01 1.000000015E-01 3.419130296E-02
1.417855769E-01 1.000000015E-01 3.356537223E-02
1.415173113E-01 1.000000015E-01 3.353406116E-02
1.364719123E-01 1.000000015E-01 3.291990981E-02
1.362195313E-01 1.000000015E-01 3.288918734E-02
1.314753592E-01 1.000000015E-01 3.228821978E-02
1.312380284E-01 1.000000015E-01 3.225815669E-02
1.267792284E-01 1.000000015E-01 3.167143837E-02
1.265561730E-01 1.000000015E-01 3.164209053E-02
1.223673746E-01 1.000000015E-01 3.107045218E-02
1.221564263E-01 1.000000015E-01 3.104922920E-02
1.182228103E-01 1.000000015E-01 3.049363941E-02
1.179906055E-01 1.000000015E-01 3.064559214E-02
1.142996699E-01 1.000000015E-01 3.010757826E-02
1.140768528E-01 1.000000015E-01 3.025837615E-02
1.106146201E-01 1.000000015E-01 2.973908372E-02
1.104345843E-01 1.000000015E-01 2.971726656E-02
1.065743044E-01 1.000000015E-01 3.222864121E-02
1.063344404E-01 1.000000015E-01 3.238737211E-02
1.017550826E-01 1.000000015E-01 3.931998461E-02
1.014115959E-01 1.000000015E-01 3.963878378E-02
9.744976461E-02 1.000000015E-01 4.446027428E-02
9.710488468E-02 1.000000015E-01 4.456043243E-02
9.413223714E-02 1.000000015E-01 4.538872465E-02
9.379809350E-02 1.000000015E-01 4.540312663E-02
9.103842825E-02 1.000000015E-01 4.571822286E-02
9.069292247E-02 1.000000015E-01 4.574882984E-02
8.800409734E-02 1.000000015E-01 4.612864926E-02
8.764462918E-02 1.000000015E-01 4.616461322E-02
8.503000438E-02 1.000000015E-01 4.651724547E-02
8.465381712E-02 1.000000015E-01 4.654862732E-02
8.210490644E-02 1.000000015E-01 4.684741795E-02
8.170466870E-02 1.000000015E-01 4.688083380E-02
7.918959111E-02 1.000000015E-01 4.721826687E-02
7.875587791E-02 1.000000015E-01 4.726643860E-02
7.626579702E-02 1.000000015E-01 4.763843119E-02
7.579772174E-02 1.000000015E-01 4.768360779E-02
7.339791954E-02 1.000000015E-01 4.789848626E-02
7.290383428E-02 1.000000015E-01 4.791069031E-02
7.059346139E-02 1.000000015E-01 4.799392819E-02
7.006558031E-02 1.000000015E-01 4.799290001E-02
6.776784360E-02 1.000000015E-01 4.812470824E-02
6.718748063E-02 1.000000015E-01 4.813952744E-02
6.495373696E-02 1.000000015E-01 4.820834100E-02
6.433502585E-02 1.000000015E-01 4.819943011E-02
6.224753708E-02 1.000000015E-01 4.806871340E-02
6.161431223E-02 1.000000015E-01 4.799865559E-02
5.968409777E-02 1.000000015E-01 4.767900705E-02
5.904667825E-02 1.000000015E-01 4.754430428E-02
5.726077035E-02 1.000000015E-01 4.708208889E-02
5.662620068E-02 1.000000015E-01 4.688523710E-02
5.496717989E-02 1.000000015E-01 4.633985832E-02
5.433452129E-02 1.000000015E-01 4.609995708E-02
5.283849314E-02 1.000000015E-01 4.543669894E-02
5.222538114E-02 1.000000015E-01 4.514388368E-02
5.086139590E-02 1.000000015E-01 4.441448301E-02
5.026536435E-02 1.000000015E-01 4.408369958E-02
4.902347550E-02 1.000000015E-01 4.331759736E-02
4.845428839E-02 1.000000015E-01 4.295139387E-02
4.736756906E-02 1.000000015E-01 4.209852219E-02
4.684950784E-02 1.000000015E-01 4.167407006E-02
4.583061114E-02 1.000000015E-01 4.082428664E-02
4.532729462E-02 1.000000015E-01 4.038509727E-02
4.436917603E-02 1.000000015E-01 3.955587745E-02
4.387864470E-02 1.000000015E-01 3.911197931E-02
4.305792227E-02 1.000000015E-01 3.822901100E-02
4.261739925E-02 1.000000015E-01 3.775107488E-02
4.191470146E-02 1.000000015E-01 3.683675081E-02
4.152815789E-02 1.000000015E-01 3.633084893E-02
4.091546685E-02 1.000000015E-01 3.541688249E-02
4.057748616E-02 1.000000015E-01 3.489758074E-02
4.008604586E-02 1.000000015E-01 3.394838423E-02
3.979506716E-02 1.000000015E-01 3.341794014E-02
3.940505534E-02 1.000000015E-01 3.244261444E-02
3.915275633E-02 1.000000015E-01 3.190773353E-02
3.879337013E-02 1.000000015E-01 3.096610121E-02
3.857226670E-02 1.000000015E-01 3.043709137E-02
3.824915364E-02 1.000000015E-01 2.951793186E-02
3.806512058E-02 1.000000015E-01 2.898922376E-02
3.781010211E-02 1.000000015E-01 2.806527913E-02
3.766269237E-02 1.000000015E-01 2.753758244E-02
3.745578602E-02 1.000000015E-01 2.662807330E-02
3.732645884E-02 1.000000015E-01 2.611783519E-02
3.715625778E-02 1.000000015E-01 2.522539347E-02
3.704499826E-02 1.000000015E-01 2.473021671E-02
3.690091893E-02 1.000000015E-01 2.385870181E-02
3.681385517E-02 1.000000015E-01 2.337408625E-02
3.669095784E-02 1.000000015E-01 2.252897620E-02
3.662038594E-02 1.000000015E-01 2.206113189E-02
3.654871881E-02 1.000000015E-01 2.121941186E-02
3.650029004E-02 1.000000015E-01 2.076226100E-02
3.648449853E-02 1.000000015E-01 1.992309652E-02
3.646032885E-02 1.000000015E-01 1.947681233E-02
3.646881878E-02 1.000000015E-01 1.865120418E-02
3.645903990E-02 1.000000015E-01 1.821847819E-02
3.646674752E-02 1.000000015E-01 1.740513556E-02
3.646451235E-02 1.000000015E-01 1.698243432E-02
3.649216145E-02 1.000000015E-01 1.618234999E-02
3.650065139E-02 1.000000015E-01 1.577303372E-02
3.661205620E-02 1.000000015E-01 1.497848053E-02
3.665605187E-02 1.000000015E-01 1.458218787E-02
3.683188558E-02 1.000000015E-01 1.380848140E-02
3.690593690E-02 1.000000015E-01 1.343178749E-02
3.704903275E-02 1.000000015E-01 1.268239878E-02
3.710920736E-02 1.000000015E-01 1.232530084E-02
3.721387684E-02 1.000000015E-01 1.156212576E-02
3.725361079E-02 1.000000015E-01 1.120699570E-02
3.737396002E-02 1.000000015E-01 1.045209076E-02
3.741753474E-02 1.000000015E-01 1.010803692E-02
3.757439181E-02 1.000000015E-01 9.437465109E-03
3.763262182E-02 1.000000015E-01 9.136659093E-03
3.782034665E-02 1.000000015E-01 8.525390178E-03
3.789222613E-02 1.000000015E-01 8.256079629E-03
3.811711073E-02 1.000000015E-01 7.503462955E-03
3.820942715E-02 1.000000015E-01 7.182058878E-03
3.850473836E-02 1.000000015E-01 6.320409011E-03
3.862127662E-02 1.000000015E-01 5.965077318E-03
3.883186355E-02 1.000000015E-01 5.388806108E-03
3.890485317E-02 1.000000015E-01 5.153693724E-03
3.890474513E-02 1.000000015E-01 4.789767787E-03
3.890189528E-02 1.000000015E-01 4.638482817E-03
3.899144381E-02 1.000000015E-01 3.823439358E-03
3.904035315E-02 1.000000015E-01 3.501517698E-03
3.935508430E-02 1.000000015E-01 2.507798839E-03
3.949581459E-02 1.000000015E-01 2.125161467E-03
3.967969120E-02 1.000000015E-01 1.518087811E-03
3.976645693E-02 1.000000015E-01 1.282605692E-03
3.970565647E-02 1.000000015E-01 9.454666870E-04
3.969841450E-02 1.000000015E-01 8.120404673E-04
3.974056989E-02 1.000000015E-01 2.200642921E-04
3.976053372E-02 1.000000015E-01 4.512917712E-06
4.008174688E-02 1.000000015E-01 -5.857157521E-04
4.019328579E-02 1.000000015E-01 -7.958600181E-04
4.060303047E-02 1.000000015E-01 -1.124841045E-03
4.074945673E-02 1.000000015E-01 -1.247374457E-03
4.107628390E-02 1.000000015E-01 -1.831391710E-03
4.119511694E-02 1.000000015E-01 -2.037289552E-03
4.142743349E-02 1.000000015E-01 -2.958684694E-03
4.150854051E-02 1.000000015E-01 -3.265028354E-03
4.165716842E-02 1.000000015E-01 -4.027952440E-03
4.170965031E-02 1.000000015E-01 -4.277703352E-03
4.186767712E-02 1.000000015E-01 -4.630772397E-03
4.191857204E-02 1.000000015E-01 -4.752529319E-03
4.218740016E-02 1.000000015E-01 -5.251238123E-03
4.226159304E-02 1.000000015E-01 -5.418050569E-03
4.255568609E-02 1.000000015E-01 -6.138000637E-03
4.263338074E-02 1.000000015E-01 -6.368354894E-03
4.279318452E-02 1.000000015E-01 -7.012442220E-03
4.283528775E-02 1.000000015E-01 -7.217655424E-03
4.285945743E-02 1.000000015E-01 -7.770497352E-03
4.286279902E-02 1.000000015E-01 -7.949808612E-03
4.287857935E-02 1.000000015E-01 -8.558615111E-03
4.287727177E-02 1.000000015E-01 -8.757597767E-03
4.294493794E-02 1.000000015E-01 -9.428367019E-03
4.295875877E-02 1.000000015E-01 -9.648280218E-03
4.304902628E-02 1.000000015E-01 -1.032019872E-02
4.306975380E-02 1.000000015E-01 -1.054226886E-02
4.314782843E-02 1.000000015E-01 -1.119463611E-02
4.316591471E-02 1.000000015E-01 -1.141255908E-02
4.324502498E-02 1.000000015E-01 -1.207387634E-02
4.326576740E-02 1.000000015E-01 -1.229636464E-02
4.337799177E-02 1.000000015E-01 -1.297973841E-02
4.340934753E-02 1.000000015E-01 -1.321139559E-02
4.355581477E-02 1.000000015E-01 -1.391014922E-02
4.359742254E-02 1.000000015E-01 -1.414887514E-02
4.375861585E-02 1.000000015E-01 -1.485814154E-02
4.380679876E-02 1.000000015E-01 -1.510142721E-02
4.397029802E-02 1.000000015E-01 -1.581951417E-02
4.402196407E-02 1.000000015E-01 -1.606665552E-02
4.419535771E-02 1.000000015E-01 -1.680077240E-02
4.425169528E-02 1.000000015E-01 -1.705478877E-02
4.444950819E-02 1.000000015E-01 -1.780265942E-02
4.451403394E-02 1.000000015E-01 -1.806337573E-02
4.473489523E-02 1.000000015E-01 -1.882588677E-02
4.480706155E-02 1.000000015E-01 -1.909368671E-02
4.504660517E-02 1.000000015E-01 -1.987950318E-02
4.512829334E-02 1.000000015E-01 -2.015552483E-02
4.539192468E-02 1.000000015E-01 -2.096017078E-02
4.548624903E-02 1.000000015E-01 -2.124199085E-02
4.577600211E-02 1.000000015E-01 -2.206657827E-02
4.588032514E-02 1.000000015E-01 -2.235620841E-02
4.620599747E-02 1.000000015E-01 -2.319923043E-02
4.632141441E-02 1.000000015E-01 -2.349730767E-02
4.669357091E-02 1.000000015E-01 -2.434812859E-02
4.682460800E-02 1.000000015E-01 -2.465001121E-02
4.723443836E-02 1.000000015E-01 -2.551863715E-02
4.738307744E-02 1.000000015E-01 -2.582360804E-02
4.783229530E-02 1.000000015E-01 -2.671457455E-02
4.799812660E-02 1.000000015E-01 -2.702398598E-02
4.850250483E-02 1.000000015E-01 -2.792299166E-02
4.868285730E-02 1.000000015E-01 -2.823704854E-02
4.924868792E-02 1.000000015E-01 -2.914714627E-02
4.944764078E-02 1.000000015E-01 -2.946418338E-02
5.008777604E-02 1.000000015E-01 -3.038366511E-02
5.031266436E-02 1.000000015E-01 -3.069867380E-02
5.105360970E-02 1.000000015E-01 -3.160042316E-02
5.130689591E-02 1.000000015E-01 -3.190671280E-02
5.214284360E-02 1.000000015E-01 -3.279460594E-02
5.241964385E-02 1.000000015E-01 -3.309296444E-02
5.331055820E-02 1.000000015E-01 -3.400558606E-02
5.360219628E-02 1.000000015E-01 -3.430211172E-02
5.457174405E-02 1.000000015E-01 -3.520836681E-02
5.488156155E-02 1.000000015E-01 -3.549501300E-02
5.598544329E-02 1.000000015E-01 -3.633978590E-02
5.632268637E-02 1.000000015E-01 -3.660307452E-02
5.754671246E-02 1.000000015E-01 -3.740975633E-02
5.790657550E-02 1.000000015E-01 -3.765177727E-02
5.924341083E-02 1.000000015E-01 -3.841962293E-02
5.961650982E-02 1.000000015E-01 -3.864454851E-02
6.107287481E-02 1.000000015E-01 -3.936013952E-02
6.145964190E-02 1.000000015E-01 -3.956032544E-02
6.303568184E-02 1.000000015E-01 -4.021336511E-02
6.343552470E-02 1.000000015E-01 -4.038111493E-02
6.514803320E-02 1.000000015E-01 -4.092384130E-02
6.555276364E-02 1.000000015E-01 -4.105996341E-02
6.739995629E-02 1.000000015E-01 -4.147991166E-02
6.780436635E-02 1.000000015E-01 -4.158426449E-02
6.978160888E-02 1.000000015E-01 -4.187142476E-02
7.018323243E-02 1.000000015E-01 -4.194002226E-02
7.226048410E-02 1.000000015E-01 -4.212768003E-02
7.265069336E-02 1.000000015E-01 -4.216980934E-02
7.479136437E-02 1.000000015E-01 -4.233206809E-02
7.516183704E-02 1.000000015E-01 -4.236738384E-02
7.739467174E-02 1.000000015E-01 -4.243588820E-02
7.774853706E-02 1.000000015E-01 -4.245898500E-02
8.010391146E-02 1.000000015E-01 -4.232985154E-02
8.044670522E-02 1.000000015E-01 -4.232196882E-02
8.287346363E-02 1.000000015E-01 -4.213732481E-02
8.319916576E-02 1.000000015E-01 -4.211990908E-02
8.563961834E-02 1.000000015E-01 -4.208727553E-02
8.594408631E-02 1.000000015E-01 -4.209066182E-02
8.842193335E-02 1.000000015E-01 -4.216799513E-02
8.871357143E-02 1.000000015E-01 -4.218263179E-02
9.128864855E-02 1.000000015E-01 -4.221862927E-02
9.157659858E-02 1.000000015E-01 -4.222536832E-02
9.427183121E-02 1.000000015E-01 -4.218825698E-02
9.455842525E-02 1.000000015E-01 -4.218751565E-02
9.736123681E-02 1.000000015E-01 -4.217015207E-02
9.764662385E-02 1.000000015E-01 -4.217362031E-02
1.005646288E-01 1.000000015E-01 -4.226700589E-02
1.008521616E-01 1.000000015E-01 -4.228230193E-02
1.039137989E-01 1.000000015E-01 -4.249536991E-02
1.042083055E-01 1.000000015E-01 -4.252094030E-02
1.074373350E-01 1.000000015E-01 -4.282210395E-02
1.077423096E-01 1.000000015E-01 -4.285370186E-02
1.111662909E-01 1.000000015E-01 -4.321769625E-02
1.114844680E-01 1.000000015E-01 -4.325329512E-02
1.151288971E-01 1.000000015E-01 -4.366493970E-02
1.154619306E-01 1.000000015E-01 -4.370432720E-02
1.193447858E-01 1.000000015E-01 -4.414747283E-02
1.196934730E-01 1.000000015E-01 -4.418962821E-02
1.238304004E-01 1.000000015E-01 -4.464536160E-02
1.241954416E-01 1.000000015E-01 -4.468758404E-02
1.285995543E-01 1.000000015E-01 -4.515352473E-02
1.289815158E-01 1.000000015E-01 -4.519416019E-02
1.343549639E-01 1.000000015E-01 -4.178560153E-02
1.347215474E-01 1.000000015E-01 -4.173503444E-02
1.407850087E-01 1.000000015E-01 -3.619712964E-02
1.411033422E-01 1.000000015E-01 -3.605660051E-02
1.468127221E-01 1.000000015E-01 -3.454434127E-02
1.471103132E-01 1.000000015E-01 -3.443660215E-02
1.528037637E-01 1.000000015E-01 -3.507232293E-02
1.531150043E-01 1.000000015E-01 -3.495870903E-02
1.591610163E-01 1.000000015E-01 -3.560305014E-02
1.594799310E-01 1.000000015E-01 -3.553593531E-02
1.658947766E-01 1.000000015E-01 -3.618698195E-02
1.662156731E-01 1.000000015E-01 -3.621954843E-02
1.730147451E-01 1.000000015E-01 -3.687525913E-02
1.733548641E-01 1.000000015E-01 -3.690806031E-02
1.805547476E-01 1.000000015E-01 -3.756636754E-02
1.809149235E-01 1.000000015E-01 -3.759929910E-02
1.885318607E-01 1.000000015E-01 -3.825803101E-02
1.889128834E-01 1.000000015E-01 -3.829098493E-02
1.969625354E-01 1.000000015E-01 -3.894792497E-02
1.973652095E-01 1.000000015E-01 -3.898078576E-02
2.058624178E-01 1.000000015E-01 -3.963360190E-02
2.062874883E-01 1.000000015E-01 -3.966625780E-02
2.152461261E-01 1.000000015E-01 -4.031259194E-02
2.156942636E-01 1.000000015E-01 -4.034492373E-02
2.251269072E-01 1.000000015E-01 -4.098239169E-02
2.255987674E-01 1.000000015E-01 -4.101428017E-02
2.355164289E-01 1.000000015E-01 -4.164027795E-02
2.360125482E-01 1.000000015E-01 -4.167159274E-02
2.464244366E-01 1.000000015E-01 -4.228335246E-02
2.469452918E-01 1.000000015E-01 -4.231395572E-02
2.578584254E-01 1.000000015E-01 -4.290848970E-02
2.584043443E-01 1.000000015E-01 -4.293822870E-02
2.698233724E-01 1.000000015E-01 -4.351223260E-02
2.703946233E-01 1.000000015E-01 -4.354094714E-02
2.823213935E-01 1.000000015E-01 -4.409070686E-02
2.829180062E-01 1.000000015E-01 -4.411821067E-02
2.953513861E-01 1.000000015E-01 -4.463945329E-02
2.959733307E-01 1.000000015E-01 -4.466553032E-02
3.089088202E-01 1.000000015E-01 -4.515334219E-02
3.095559180E-01 1.000000015E-01 -4.517774284E-02
3.229855001E-01 1.000000015E-01 -4.562650621E-02
3.236573040E-01 1.000000015E-01 -4.564895481E-02
3.375692070E-01 1.000000015E-01 -4.605231434E-02
3.382651508E-01 1.000000015E-01 -4.607249051E-02
3.526436090E-01 1.000000015E-01 -4.642338678E-02
3.533628881E-01 1.000000015E-01 -4.644094035E-02
3.681881726E-01 1.000000015E-01 -4.673158750E-02
3.689298034E-01 1.000000015E-01 -4.674612358E-02
3.841779828E-01 1.000000015E-01 -4.696816951E-02
3.849407732E-01 1.000000015E-01 -4.697927460E-02
4.005838931E-01 1.000000015E-01 -4.712416232E-02
4.013664424E-01 1.000000015E-01 -4.713141173E-02
4.173725247E-01 1.000000015E-01 -4.719066247E-02
4.181732237E-01 1.000000015E-01 -4.719362780E-02
4.345065355E-01 1.000000015E-01 -4.715912044E-02
4.353235960E-01 1.000000015E-01 -4.715739191E-02
4.519446790E-01 1.000000015E-01 -4.702182114E-02
4.527761340E-01 1.000000015E-01 -4.701504111E-02
4.696424603E-01 1.000000015E-01 -4.677262157E-02
4.704861641E-01 1.000000015E-01 -4.676049203E-02
4.875521958E-01 1.000000015E-01 -4.640724137E-02
4.884059131E-01 1.000000015E-01 -4.638957232E-02
5.056239963E-01 1.000000015E-01 -4.592337832E-02
5.064852834E-01 1.000000015E-01 -4.590005800E-02
5.238056183E-01 1.000000015E-01 -4.532120749E-02
5.246720910E-01 1.000000015E-01 -4.529225081E-02
5.420439243E-01 1.000000015E-01 -4.460375383E-02
5.429129601E-01 1.000000015E-01 -4.456930980E-02
5.602847934E-01 1.000000015E-01 -4.377668351E-02
5.611538291E-01 1.000000015E-01 -4.373703524E-02
5.784742236E-01 1.000000015E-01 -4.284801334E-02
5.793406963E-01 1.000000015E-01 -4.280354083E-02
5.965586901E-01 1.000000015E-01 -4.182776436E-02
5.974199772E-01 1.000000015E-01 -4.177895188E-02
6.144860387E-01 1.000000015E-01 -4.072761163E-02
6.153397560E-01 1.000000015E-01 -4.067501798E-02
6.322060823E-01 1.000000015E-01 -3.956038505E-02
6.330497861E-01 1.000000015E-01 -3.950462490E-02
6.496708393E-01 1.000000015E-01 -3.833932430E-02