#+++++++++++++++++++++++++++++++++++++++++++++++++++++++++++++++++++++++++++++++++++++++++++++++++++++++++++++++++++++++++++++++++
#
#   IPW-3 Cut/Slice DATA SUBMITTAL FORM for Test Case ONERAM6, May 18th 2026
#
#       NOMENCLATURE:
#                  X [m]:  X-coordinate of the surface (clean for reference)
#                  Y [m]:  Y-coordinate of the surface (clean for reference)
#                  Z [m]:  Z-coordinate of the surface (clean for reference)
#                 Cp [-]:  Pressure coefficient
#            HTC [W/m2K]:  Convective Heat Transfer Coefficient (on the rough surface)
#               Beta [-]:  Collection efficiency
#                 Ts [K]:  Surface temperature
#                 FF [-]:  Freezing fraction
#                  k [m]:  Surface roughness height if variable (OPTIONAL)
#         RhoIce [kg/m3]:  Ice density (OPTIONAL)
#      HTC_CLEAN [W/m2K]:  Convective Heat Transfer Coefficient on the surface without roughness (OPTIONAL)
#
#                XXmm:  Roughness height used for the case, in mm.
#                       In the zone name, use the format KS_XXmm.
#                       For example, if k_s = 1.5 mm, use KS_1p5mm. 
#                       For Variable roughness, use KS_VAR
#
#
#    FLOW CONDITIONS:
#                                   AOA: 2.0 deg
#                           Mach Number: 0.4 [-]
#       Mean aerodynamic chord (M.A.C.): 0.801673 [m]
#                       Reynolds Number: 4.2558 million (based on MAC)
#                       Freestream Temp: 267.15 [K]
#                        Reference area: 1.1532 [m2]
#               Moment Reference Center: 0.25, 0, 0 [m] (X, Y, Z)
#
#    ICING CONDITIONS:
#                           Icing Time: 1350 [s]
#                                  LWC: 0.51 [g/m3]
#                                  MVD: 20 [μm]
#
#              NOTES: 1. Please use at least 5 decimal places in the numerical values
#                     2. If data are NOT provided, please fill data fields with a numerical value of "-999" 
#
#++++++++++++++++++++++++++++++++++++++++++++++++++++++++++++++++++++++++++++++++++++++++++++++++++++++++++++++++++++

                                                     <- Optional ->                 
VARIABLES = "X" "Y" "Z" "Cp" "HTC" "Beta" "Ts" "FF" "k" "RhoIce" "HTC_CLEAN"

ZONE T="SLICE_Y_0p1_BINS01_KS_1mm_CUTDATA"
1.02809 0.10000 0.00000 0.04326 195.01586 0.00000 274.68889 0.00000 -999.00000 680.00000 -999.00000 
1.02767 0.10000 -0.00005 0.08024 180.48654 0.00000 274.71188 0.00000 -999.00000 680.00000 -999.00000 
1.02631 0.10000 -0.00023 0.09958 162.14088 0.00000 274.71697 0.00000 -999.00000 680.00000 -999.00000 
1.02371 0.10000 -0.00056 0.09168 162.55411 0.00000 274.71015 0.00000 -999.00000 680.00000 -999.00000 
1.01925 0.10000 -0.00113 0.08724 162.17358 0.00000 274.70580 0.00000 -999.00000 680.00000 -999.00000 
1.01183 0.10000 -0.00206 0.07825 165.21891 0.00000 274.70015 0.00000 -999.00000 680.00000 -999.00000 
0.99946 0.10000 -0.00359 0.06405 170.26439 0.00000 274.69122 0.00000 -999.00000 680.00000 -999.00000 
0.97878 0.10000 -0.00613 0.03756 177.99604 0.00000 274.67267 0.00000 -999.00000 680.00000 -999.00000 
0.94439 0.10000 -0.01035 -0.00044 190.09959 0.00000 274.64575 0.00000 -999.00000 680.00000 -999.00000 
0.88858 0.10000 -0.01680 -0.04075 205.78221 0.00000 274.61759 0.00000 -999.00000 680.00000 -999.00000 
0.80304 0.10000 -0.02547 -0.08539 223.16456 0.00000 274.58473 0.00000 -999.00000 680.00000 -999.00000 
0.68456 0.10000 -0.03573 -0.14178 243.42978 0.00000 274.54052 0.00000 -999.00000 680.00000 -999.00000 
0.54291 0.10000 -0.04460 -0.16969 268.40262 0.00000 274.52294 0.00000 -999.00000 680.00000 -999.00000 
0.40127 0.10000 -0.04715 -0.14740 292.03933 0.00000 274.55056 0.00000 -999.00000 680.00000 -999.00000 
0.28278 0.10000 -0.04413 -0.11279 312.54749 0.00000 274.58788 0.00000 -999.00000 680.00000 -999.00000 
0.19725 0.10000 -0.03898 -0.07672 333.59792 0.00000 273.06557 0.40241 -999.00000 680.00000 -999.00000 
0.14143 0.10000 -0.03353 -0.04065 355.37349 0.00000 272.23980 0.77344 -999.00000 680.00000 -999.00000 
0.10704 0.10000 -0.02882 -0.05321 385.63293 0.00000 273.05176 0.52760 -999.00000 680.00000 -999.00000 
0.08637 0.10000 -0.02492 -0.03734 438.58957 0.06467 273.15000 0.23232 -999.00000 680.00000 -999.00000 
0.07400 0.10000 -0.02052 0.12275 510.04419 0.21991 273.15000 0.11856 -999.00000 680.00000 -999.00000 
0.06657 0.10000 -0.01578 0.38701 573.38563 0.37919 273.15000 0.05546 -999.00000 680.00000 -999.00000 
0.06212 0.10000 -0.01130 0.63485 594.45161 0.49534 273.32488 0.01266 -999.00000 680.00000 -999.00000 
0.05952 0.10000 -0.00724 0.79719 576.57350 0.57124 273.55725 0.00000 -999.00000 680.00000 -999.00000 
0.05816 0.10000 -0.00355 0.86897 563.61481 0.61105 273.59811 0.00000 -999.00000 680.00000 -999.00000 
0.05773 0.10000 0.00000 0.82997 600.29436 0.61390 273.60814 0.00000 -999.00000 680.00000 -999.00000 
0.05816 0.10000 0.00355 0.67492 657.84867 0.57746 273.39240 0.00885 -999.00000 680.00000 -999.00000 
0.05952 0.10000 0.00724 0.43031 682.82936 0.50597 273.15000 0.05061 -999.00000 680.00000 -999.00000 
0.06212 0.10000 0.01130 0.12599 673.39842 0.40179 273.15000 0.11810 -999.00000 680.00000 -999.00000 
0.06657 0.10000 0.01578 -0.20099 629.42965 0.25874 273.15000 0.20515 -999.00000 680.00000 -999.00000 
0.07400 0.10000 0.02052 -0.46426 551.07394 0.08816 273.15000 0.44299 -999.00000 680.00000 -999.00000 
0.08637 0.10000 0.02492 -0.55607 455.75297 0.00000 271.30798 0.81418 -999.00000 680.00000 -999.00000 
0.10704 0.10000 0.02882 -0.45107 386.93387 0.00000 271.91673 0.50000 -999.00000 680.00000 -999.00000 
0.14143 0.10000 0.03353 -0.33793 355.10824 0.00000 274.38429 0.00000 -999.00000 680.00000 -999.00000 
0.19725 0.10000 0.03898 -0.31123 334.83855 0.00000 274.40597 0.00000 -999.00000 680.00000 -999.00000 
0.28278 0.10000 0.04413 -0.29752 315.30811 0.00000 274.41494 0.00000 -999.00000 680.00000 -999.00000 
0.40127 0.10000 0.04715 -0.29462 294.14358 0.00000 274.41267 0.00000 -999.00000 680.00000 -999.00000 
0.54291 0.10000 0.04460 -0.27705 268.50836 0.00000 274.42206 0.00000 -999.00000 680.00000 -999.00000 
0.68456 0.10000 0.03573 -0.21026 241.54611 0.00000 274.47569 0.00000 -999.00000 680.00000 -999.00000 
0.80304 0.10000 0.02547 -0.12864 217.97173 0.00000 274.54209 0.00000 -999.00000 680.00000 -999.00000 
0.88858 0.10000 0.01680 -0.06562 196.64738 0.00000 274.58943 0.00000 -999.00000 680.00000 -999.00000 
0.94439 0.10000 0.01035 -0.01312 177.25948 0.00000 274.62544 0.00000 -999.00000 680.00000 -999.00000 
0.97878 0.10000 0.00613 0.03128 162.86102 0.00000 274.65516 0.00000 -999.00000 680.00000 -999.00000 
0.99946 0.10000 0.00359 0.05994 154.11643 0.00000 274.67363 0.00000 -999.00000 680.00000 -999.00000 
1.01183 0.10000 0.00206 0.07520 148.90186 0.00000 274.68246 0.00000 -999.00000 680.00000 -999.00000 
1.01925 0.10000 0.00113 0.08432 146.65885 0.00000 274.68847 0.00000 -999.00000 680.00000 -999.00000 
1.02371 0.10000 0.00056 0.08866 147.98112 0.00000 274.69374 0.00000 -999.00000 680.00000 -999.00000 
1.02631 0.10000 0.00023 0.09178 149.82145 0.00000 274.69846 0.00000 -999.00000 680.00000 -999.00000 
1.02767 0.10000 0.00005 0.06362 169.76724 0.00000 274.68858 0.00000 -999.00000 680.00000 -999.00000 
1.02809 0.10000 0.00000 0.04326 195.01586 0.00000 274.68889 0.00000 -999.00000 680.00000 -999.00000 

ZONE T="SLICE_Y_0p75_BINS01_KS_1mm_CUTDATA"
1.21070 0.75000 0.00000 0.04391 211.44155 0.00000 274.69848 0.00000 -999.00000 680.00000 -999.00000 
1.21036 0.75000 -0.00004 0.08250 194.44416 0.00000 274.72292 0.00000 -999.00000 680.00000 -999.00000 
1.20927 0.75000 -0.00018 0.10485 173.42768 0.00000 274.73081 0.00000 -999.00000 680.00000 -999.00000 
1.20719 0.75000 -0.00045 0.09756 172.21556 0.00000 274.72326 0.00000 -999.00000 680.00000 -999.00000 
1.20361 0.75000 -0.00090 0.09385 170.18938 0.00000 274.71834 0.00000 -999.00000 680.00000 -999.00000 
1.19766 0.75000 -0.00165 0.08628 172.54163 0.00000 274.71325 0.00000 -999.00000 680.00000 -999.00000 
1.18775 0.75000 -0.00287 0.07410 177.23113 0.00000 274.70558 0.00000 -999.00000 680.00000 -999.00000 
1.17118 0.75000 -0.00491 0.05054 184.71989 0.00000 274.68915 0.00000 -999.00000 680.00000 -999.00000 
1.14362 0.75000 -0.00830 0.01575 196.88326 0.00000 274.66468 0.00000 -999.00000 680.00000 -999.00000 
1.09888 0.75000 -0.01347 -0.02240 213.34760 0.00000 274.63834 0.00000 -999.00000 680.00000 -999.00000 
1.03033 0.75000 -0.02041 -0.06604 232.31323 0.00000 274.60657 0.00000 -999.00000 680.00000 -999.00000 
0.93537 0.75000 -0.02864 -0.12706 254.63392 0.00000 274.55822 0.00000 -999.00000 680.00000 -999.00000 
0.82185 0.75000 -0.03574 -0.16914 281.89347 0.00000 274.52738 0.00000 -999.00000 680.00000 -999.00000 
0.70833 0.75000 -0.03779 -0.15856 308.76848 0.00000 274.54422 0.00000 -999.00000 680.00000 -999.00000 
0.61337 0.75000 -0.03536 -0.13335 332.50100 0.00000 274.57297 0.00000 -999.00000 680.00000 -999.00000 
0.54481 0.75000 -0.03124 -0.10927 355.88782 0.00000 273.08191 0.50000 -999.00000 680.00000 -999.00000 
0.50008 0.75000 -0.02687 -0.08436 379.33786 0.00000 272.36507 0.74517 -999.00000 680.00000 -999.00000 
0.47252 0.75000 -0.02310 -0.09746 414.71726 0.01508 273.15000 0.36532 -999.00000 680.00000 -999.00000 
0.45595 0.75000 -0.01997 -0.07730 480.12311 0.10104 273.15000 0.18995 -999.00000 680.00000 -999.00000 
0.44603 0.75000 -0.01644 0.08117 567.57730 0.26007 273.15000 0.11251 -999.00000 680.00000 -999.00000 
0.44008 0.75000 -0.01265 0.33609 644.95643 0.41428 273.15000 0.05740 -999.00000 680.00000 -999.00000 
0.43651 0.75000 -0.00906 0.56769 680.88551 0.52518 273.19765 0.01470 -999.00000 680.00000 -999.00000 
0.43442 0.75000 -0.00580 0.71405 688.64916 0.59678 273.45658 0.00000 -999.00000 680.00000 -999.00000 
0.43333 0.75000 -0.00284 0.75976 701.72752 0.63371 273.62970 0.00000 -999.00000 680.00000 -999.00000 
0.43300 0.75000 0.00000 0.69690 741.85725 0.63444 273.38938 0.00000 -999.00000 680.00000 -999.00000 
0.43333 0.75000 0.00284 0.52287 781.67393 0.59663 273.16861 0.01664 -999.00000 680.00000 -999.00000 
0.43442 0.75000 0.00580 0.25815 786.28817 0.52461 273.15000 0.05863 -999.00000 680.00000 -999.00000 
0.43651 0.75000 0.00906 -0.06338 760.51694 0.42025 273.15000 0.11712 -999.00000 680.00000 -999.00000 
0.44008 0.75000 0.01265 -0.39750 698.17248 0.27769 273.15000 0.19373 -999.00000 680.00000 -999.00000 
0.44603 0.75000 0.01644 -0.64549 593.63597 0.09790 273.15000 0.35602 -999.00000 680.00000 -999.00000 
0.45595 0.75000 0.01997 -0.70766 479.14370 0.00000 271.96112 0.73742 -999.00000 680.00000 -999.00000 
0.47252 0.75000 0.02310 -0.56631 406.80633 0.00000 272.52565 0.50000 -999.00000 680.00000 -999.00000 
0.50008 0.75000 0.02687 -0.41758 372.46987 0.00000 274.31108 0.00000 -999.00000 680.00000 -999.00000 
0.54481 0.75000 0.03124 -0.36100 349.44805 0.00000 274.36137 0.00000 -999.00000 680.00000 -999.00000 
0.61337 0.75000 0.03536 -0.32183 329.54433 0.00000 274.39487 0.00000 -999.00000 680.00000 -999.00000 
0.70833 0.75000 0.03779 -0.29330 306.74183 0.00000 274.41694 0.00000 -999.00000 680.00000 -999.00000 
0.82185 0.75000 0.03574 -0.25298 278.52872 0.00000 274.44765 0.00000 -999.00000 680.00000 -999.00000 
0.93537 0.75000 0.02864 -0.17561 249.39761 0.00000 274.51098 0.00000 -999.00000 680.00000 -999.00000 
1.03033 0.75000 0.02041 -0.09422 224.21225 0.00000 274.57689 0.00000 -999.00000 680.00000 -999.00000 
1.09888 0.75000 0.01347 -0.03542 202.37681 0.00000 274.62056 0.00000 -999.00000 680.00000 -999.00000 
1.14362 0.75000 0.00830 0.01106 183.71775 0.00000 274.65215 0.00000 -999.00000 680.00000 -999.00000 
1.17118 0.75000 0.00491 0.04852 170.53726 0.00000 274.67718 0.00000 -999.00000 680.00000 -999.00000 
1.18775 0.75000 0.00287 0.07233 162.79749 0.00000 274.69273 0.00000 -999.00000 680.00000 -999.00000 
1.19766 0.75000 0.00165 0.08452 158.50920 0.00000 274.70012 0.00000 -999.00000 680.00000 -999.00000 
1.20361 0.75000 0.00090 0.09153 157.59562 0.00000 274.70569 0.00000 -999.00000 680.00000 -999.00000 
1.20719 0.75000 0.00045 0.09495 161.22434 0.00000 274.71196 0.00000 -999.00000 680.00000 -999.00000 
1.20927 0.75000 0.00018 0.09718 163.66819 0.00000 274.71611 0.00000 -999.00000 680.00000 -999.00000 
1.21036 0.75000 0.00004 0.06668 184.60814 0.00000 274.70215 0.00000 -999.00000 680.00000 -999.00000 
1.21070 0.75000 0.00000 0.04391 211.44155 0.00000 274.69848 0.00000 -999.00000 680.00000 -999.00000 

ZONE T="SLICE_Y_1p4_BINS01_KS_1mm_CUTDATA"
1.39331 1.40000 0.00000 0.02513 239.58995 0.00000 274.69375 0.00000 -999.00000 680.00000 -999.00000 
1.39305 1.40000 -0.00003 0.06705 221.63517 0.00000 274.72328 0.00000 -999.00000 680.00000 -999.00000 
1.39223 1.40000 -0.00014 0.09844 195.87622 0.00000 274.73991 0.00000 -999.00000 680.00000 -999.00000 
1.39066 1.40000 -0.00034 0.09230 190.06134 0.00000 274.73071 0.00000 -999.00000 680.00000 -999.00000 
1.38798 1.40000 -0.00068 0.08891 184.72723 0.00000 274.72427 0.00000 -999.00000 680.00000 -999.00000 
1.38350 1.40000 -0.00124 0.08192 185.93225 0.00000 274.71867 0.00000 -999.00000 680.00000 -999.00000 
1.37604 1.40000 -0.00216 0.07076 190.41138 0.00000 274.71132 0.00000 -999.00000 680.00000 -999.00000 
1.36358 1.40000 -0.00369 0.04974 198.02168 0.00000 274.69660 0.00000 -999.00000 680.00000 -999.00000 
1.34284 1.40000 -0.00624 0.01887 210.42010 0.00000 274.67491 0.00000 -999.00000 680.00000 -999.00000 
1.30919 1.40000 -0.01013 -0.01403 227.19356 0.00000 274.65249 0.00000 -999.00000 680.00000 -999.00000 
1.25762 1.40000 -0.01536 -0.05158 246.75001 0.00000 274.62560 0.00000 -999.00000 680.00000 -999.00000 
1.18618 1.40000 -0.02154 -0.10667 270.53636 0.00000 274.58234 0.00000 -999.00000 680.00000 -999.00000 
1.10078 1.40000 -0.02689 -0.15394 299.72276 0.00000 274.54628 0.00000 -999.00000 680.00000 -999.00000 
1.01538 1.40000 -0.02843 -0.16167 329.45151 0.00000 274.54582 0.00000 -999.00000 680.00000 -999.00000 
0.94395 1.40000 -0.02660 -0.15486 357.11103 0.00000 274.55744 0.00000 -999.00000 680.00000 -999.00000 
0.89237 1.40000 -0.02350 -0.14476 383.76689 0.00000 273.44236 0.50000 -999.00000 680.00000 -999.00000 
0.85872 1.40000 -0.02022 -0.12802 408.64371 0.00895 272.73710 0.69166 -999.00000 680.00000 -999.00000 
0.83799 1.40000 -0.01737 -0.14323 444.01708 0.04388 273.15000 0.30157 -999.00000 680.00000 -999.00000 
0.82552 1.40000 -0.01502 -0.12358 514.69427 0.13982 273.15000 0.17926 -999.00000 680.00000 -999.00000 
0.81807 1.40000 -0.01237 0.03542 621.38977 0.29756 273.15000 0.11313 -999.00000 680.00000 -999.00000 
0.81359 1.40000 -0.00952 0.29215 721.18685 0.45161 273.15000 0.06022 -999.00000 680.00000 -999.00000 
0.81090 1.40000 -0.00681 0.52497 772.05347 0.56315 273.15017 0.01734 -999.00000 680.00000 -999.00000 
0.80933 1.40000 -0.00436 0.67439 788.81537 0.63585 273.35384 0.00090 -999.00000 680.00000 -999.00000 
0.80851 1.40000 -0.00214 0.72839 802.95861 0.67418 273.54289 0.00000 -999.00000 680.00000 -999.00000 
0.80826 1.40000 0.00000 0.67555 843.08745 0.67661 273.33987 0.00008 -999.00000 680.00000 -999.00000 
0.80851 1.40000 0.00214 0.51186 882.60932 0.64101 273.15066 0.01494 -999.00000 680.00000 -999.00000 
0.80933 1.40000 0.00436 0.25934 880.05722 0.57143 273.15000 0.05193 -999.00000 680.00000 -999.00000 
0.81090 1.40000 0.00681 -0.04716 841.34970 0.47016 273.15000 0.10482 -999.00000 680.00000 -999.00000 
0.81359 1.40000 0.00952 -0.36837 761.07025 0.33068 273.15000 0.17067 -999.00000 680.00000 -999.00000 
0.81807 1.40000 0.01237 -0.61016 635.41633 0.14704 273.15000 0.28068 -999.00000 680.00000 -999.00000 
0.82552 1.40000 0.01502 -0.67520 506.21384 0.02203 273.15000 0.62443 -999.00000 680.00000 -999.00000 
0.83799 1.40000 0.01737 -0.54620 429.58443 0.00000 270.89521 0.94666 -999.00000 680.00000 -999.00000 
0.85872 1.40000 0.02022 -0.39997 394.74950 0.00000 271.50409 0.50000 -999.00000 680.00000 -999.00000 
0.89237 1.40000 0.02350 -0.32997 368.79190 0.00000 274.39411 0.00000 -999.00000 680.00000 -999.00000 
0.94395 1.40000 0.02660 -0.27173 341.87362 0.00000 274.44463 0.00000 -999.00000 680.00000 -999.00000 
1.01538 1.40000 0.02843 -0.22727 312.28010 0.00000 274.48046 0.00000 -999.00000 680.00000 -999.00000 
1.10078 1.40000 0.02689 -0.18457 279.73091 0.00000 274.51221 0.00000 -999.00000 680.00000 -999.00000 
1.18618 1.40000 0.02154 -0.11771 248.03635 0.00000 274.56449 0.00000 -999.00000 680.00000 -999.00000 
1.25762 1.40000 0.01536 -0.05052 222.69756 0.00000 274.61672 0.00000 -999.00000 680.00000 -999.00000 
1.30919 1.40000 0.01013 -0.00623 203.14473 0.00000 274.64794 0.00000 -999.00000 680.00000 -999.00000 
1.34284 1.40000 0.00624 0.02704 187.57349 0.00000 274.66938 0.00000 -999.00000 680.00000 -999.00000 
1.36358 1.40000 0.00369 0.05519 176.71000 0.00000 274.68785 0.00000 -999.00000 680.00000 -999.00000 
1.37604 1.40000 0.00216 0.07353 170.36055 0.00000 274.69989 0.00000 -999.00000 680.00000 -999.00000 
1.38350 1.40000 0.00124 0.08300 166.95565 0.00000 274.70585 0.00000 -999.00000 680.00000 -999.00000 
1.38798 1.40000 0.00068 0.08859 166.89474 0.00000 274.71088 0.00000 -999.00000 680.00000 -999.00000 
1.39066 1.40000 0.00034 0.09143 172.88414 0.00000 274.71804 0.00000 -999.00000 680.00000 -999.00000 
1.39223 1.40000 0.00014 0.09444 179.47428 0.00000 274.72566 0.00000 -999.00000 680.00000 -999.00000 
1.39305 1.40000 0.00003 0.05858 206.95194 0.00000 274.70782 0.00000 -999.00000 680.00000 -999.00000 
1.39331 1.40000 0.00000 0.02513 239.58995 0.00000 274.69375 0.00000 -999.00000 680.00000 -999.00000 

ZONE T="SLICE_Y_0p1_BINS03_KS_1mm_CUTDATA"
1.02809 0.10000 0.00000 0.04326 195.01586 0.00000 274.68889 0.00000 -999.00000 680.00000 -999.00000 
1.02767 0.10000 -0.00005 0.08024 180.48654 0.00000 274.71188 0.00000 -999.00000 680.00000 -999.00000 
1.02631 0.10000 -0.00023 0.09958 162.14088 0.00000 274.71697 0.00000 -999.00000 680.00000 -999.00000 
1.02371 0.10000 -0.00056 0.09168 162.55411 0.00000 274.71015 0.00000 -999.00000 680.00000 -999.00000 
1.01925 0.10000 -0.00113 0.08724 162.17358 0.00000 274.70580 0.00000 -999.00000 680.00000 -999.00000 
1.01183 0.10000 -0.00206 0.07825 165.21891 0.00000 274.70015 0.00000 -999.00000 680.00000 -999.00000 
0.99946 0.10000 -0.00359 0.06405 170.26439 0.00000 274.69122 0.00000 -999.00000 680.00000 -999.00000 
0.97878 0.10000 -0.00613 0.03756 177.99604 0.00000 274.67267 0.00000 -999.00000 680.00000 -999.00000 
0.94439 0.10000 -0.01035 -0.00044 190.09959 0.00000 274.64575 0.00000 -999.00000 680.00000 -999.00000 
0.88858 0.10000 -0.01680 -0.04075 205.78221 0.00000 274.61759 0.00000 -999.00000 680.00000 -999.00000 
0.80304 0.10000 -0.02547 -0.08539 223.16456 0.00000 274.58473 0.00000 -999.00000 680.00000 -999.00000 
0.68456 0.10000 -0.03573 -0.14178 243.42978 0.00000 274.54052 0.00000 -999.00000 680.00000 -999.00000 
0.54291 0.10000 -0.04460 -0.16969 268.40262 0.00000 274.52294 0.00000 -999.00000 680.00000 -999.00000 
0.40127 0.10000 -0.04715 -0.14740 292.03933 0.00000 274.55056 0.00000 -999.00000 680.00000 -999.00000 
0.28278 0.10000 -0.04413 -0.11279 312.54749 0.00000 274.58788 0.00000 -999.00000 680.00000 -999.00000 
0.19725 0.10000 -0.03898 -0.07672 333.59792 0.00000 273.04647 0.40241 -999.00000 680.00000 -999.00000 
0.14143 0.10000 -0.03353 -0.04065 355.37349 0.00028 272.22391 0.78021 -999.00000 680.00000 -999.00000 
0.10704 0.10000 -0.02882 -0.05321 385.63293 0.00481 273.05497 0.53714 -999.00000 680.00000 -999.00000 
0.08637 0.10000 -0.02492 -0.03734 438.58957 0.06481 273.15000 0.23720 -999.00000 680.00000 -999.00000 
0.07400 0.10000 -0.02052 0.12275 510.04419 0.21105 273.15000 0.12127 -999.00000 680.00000 -999.00000 
0.06657 0.10000 -0.01578 0.38701 573.38563 0.37038 273.15000 0.05596 -999.00000 680.00000 -999.00000 
0.06212 0.10000 -0.01130 0.63485 594.45161 0.48682 273.32978 0.01256 -999.00000 680.00000 -999.00000 
0.05952 0.10000 -0.00724 0.79719 576.57350 0.56303 273.57099 0.00000 -999.00000 680.00000 -999.00000 
0.05816 0.10000 -0.00355 0.86897 563.61481 0.60298 273.61560 0.00000 -999.00000 680.00000 -999.00000 
0.05773 0.10000 0.00000 0.82997 600.29436 0.60578 273.62498 0.00000 -999.00000 680.00000 -999.00000 
0.05816 0.10000 0.00355 0.67492 657.84867 0.56913 273.40058 0.00870 -999.00000 680.00000 -999.00000 
0.05952 0.10000 0.00724 0.43031 682.82936 0.49726 273.15000 0.05088 -999.00000 680.00000 -999.00000 
0.06212 0.10000 0.01130 0.12599 673.39842 0.39242 273.15000 0.11990 -999.00000 680.00000 -999.00000 
0.06657 0.10000 0.01578 -0.20099 629.42965 0.24744 273.15000 0.21108 -999.00000 680.00000 -999.00000 
0.07400 0.10000 0.02052 -0.46426 551.07394 0.08588 273.15000 0.46056 -999.00000 680.00000 -999.00000 
0.08637 0.10000 0.02492 -0.55607 455.75297 0.00413 271.22534 0.82720 -999.00000 680.00000 -999.00000 
0.10704 0.10000 0.02882 -0.45107 386.93387 0.00000 271.83409 0.50000 -999.00000 680.00000 -999.00000 
0.14143 0.10000 0.03353 -0.33793 355.10824 0.00000 274.38429 0.00000 -999.00000 680.00000 -999.00000 
0.19725 0.10000 0.03898 -0.31123 334.83855 0.00000 274.40597 0.00000 -999.00000 680.00000 -999.00000 
0.28278 0.10000 0.04413 -0.29752 315.30811 0.00000 274.41494 0.00000 -999.00000 680.00000 -999.00000 
0.40127 0.10000 0.04715 -0.29462 294.14358 0.00000 274.41267 0.00000 -999.00000 680.00000 -999.00000 
0.54291 0.10000 0.04460 -0.27705 268.50836 0.00000 274.42206 0.00000 -999.00000 680.00000 -999.00000 
0.68456 0.10000 0.03573 -0.21026 241.54611 0.00000 274.47569 0.00000 -999.00000 680.00000 -999.00000 
0.80304 0.10000 0.02547 -0.12864 217.97173 0.00000 274.54209 0.00000 -999.00000 680.00000 -999.00000 
0.88858 0.10000 0.01680 -0.06562 196.64738 0.00000 274.58943 0.00000 -999.00000 680.00000 -999.00000 
0.94439 0.10000 0.01035 -0.01312 177.25948 0.00000 274.62544 0.00000 -999.00000 680.00000 -999.00000 
0.97878 0.10000 0.00613 0.03128 162.86102 0.00000 274.65516 0.00000 -999.00000 680.00000 -999.00000 
0.99946 0.10000 0.00359 0.05994 154.11643 0.00000 274.67363 0.00000 -999.00000 680.00000 -999.00000 
1.01183 0.10000 0.00206 0.07520 148.90186 0.00000 274.68246 0.00000 -999.00000 680.00000 -999.00000 
1.01925 0.10000 0.00113 0.08432 146.65885 0.00000 274.68847 0.00000 -999.00000 680.00000 -999.00000 
1.02371 0.10000 0.00056 0.08866 147.98112 0.00000 274.69374 0.00000 -999.00000 680.00000 -999.00000 
1.02631 0.10000 0.00023 0.09178 149.82145 0.00000 274.69846 0.00000 -999.00000 680.00000 -999.00000 
1.02767 0.10000 0.00005 0.06362 169.76724 0.00000 274.68858 0.00000 -999.00000 680.00000 -999.00000 
1.02809 0.10000 0.00000 0.04326 195.01586 0.00000 274.68889 0.00000 -999.00000 680.00000 -999.00000 

ZONE T="SLICE_Y_0p75_BINS03_KS_1mm_CUTDATA"
1.21070 0.75000 0.00000 0.04391 211.44155 0.00000 274.69848 0.00000 -999.00000 680.00000 -999.00000 
1.21036 0.75000 -0.00004 0.08250 194.44416 0.00000 274.72292 0.00000 -999.00000 680.00000 -999.00000 
1.20927 0.75000 -0.00018 0.10485 173.42768 0.00000 274.73081 0.00000 -999.00000 680.00000 -999.00000 
1.20719 0.75000 -0.00045 0.09756 172.21556 0.00000 274.72326 0.00000 -999.00000 680.00000 -999.00000 
1.20361 0.75000 -0.00090 0.09385 170.18938 0.00000 274.71834 0.00000 -999.00000 680.00000 -999.00000 
1.19766 0.75000 -0.00165 0.08628 172.54163 0.00000 274.71325 0.00000 -999.00000 680.00000 -999.00000 
1.18775 0.75000 -0.00287 0.07410 177.23113 0.00000 274.70558 0.00000 -999.00000 680.00000 -999.00000 
1.17118 0.75000 -0.00491 0.05054 184.71989 0.00000 274.68915 0.00000 -999.00000 680.00000 -999.00000 
1.14362 0.75000 -0.00830 0.01575 196.88326 0.00000 274.66468 0.00000 -999.00000 680.00000 -999.00000 
1.09888 0.75000 -0.01347 -0.02240 213.34760 0.00000 274.63834 0.00000 -999.00000 680.00000 -999.00000 
1.03033 0.75000 -0.02041 -0.06604 232.31323 0.00000 274.60657 0.00000 -999.00000 680.00000 -999.00000 
0.93537 0.75000 -0.02864 -0.12706 254.63392 0.00000 274.55822 0.00000 -999.00000 680.00000 -999.00000 
0.82185 0.75000 -0.03574 -0.16914 281.89347 0.00000 274.52738 0.00000 -999.00000 680.00000 -999.00000 
0.70833 0.75000 -0.03779 -0.15856 308.76848 0.00000 274.54422 0.00000 -999.00000 680.00000 -999.00000 
0.61337 0.75000 -0.03536 -0.13335 332.50100 0.00000 274.57297 0.00000 -999.00000 680.00000 -999.00000 
0.54481 0.75000 -0.03124 -0.10927 355.88782 0.00008 273.08149 0.50000 -999.00000 680.00000 -999.00000 
0.50008 0.75000 -0.02687 -0.08436 379.33786 0.00332 272.36466 0.74585 -999.00000 680.00000 -999.00000 
0.47252 0.75000 -0.02310 -0.09746 414.71726 0.02087 273.15000 0.36868 -999.00000 680.00000 -999.00000 
0.45595 0.75000 -0.01997 -0.07730 480.12311 0.09878 273.15000 0.19417 -999.00000 680.00000 -999.00000 
0.44603 0.75000 -0.01644 0.08117 567.57730 0.25086 273.15000 0.11458 -999.00000 680.00000 -999.00000 
0.44008 0.75000 -0.01265 0.33609 644.95643 0.40577 273.15000 0.05798 -999.00000 680.00000 -999.00000 
0.43651 0.75000 -0.00906 0.56769 680.88551 0.51707 273.20150 0.01473 -999.00000 680.00000 -999.00000 
0.43442 0.75000 -0.00580 0.71405 688.64916 0.58888 273.46437 0.00000 -999.00000 680.00000 -999.00000 
0.43333 0.75000 -0.00284 0.75976 701.72752 0.62590 273.63740 0.00000 -999.00000 680.00000 -999.00000 
0.43300 0.75000 0.00000 0.69690 741.85725 0.62652 273.39655 0.00000 -999.00000 680.00000 -999.00000 
0.43333 0.75000 0.00284 0.52287 781.67393 0.58841 273.17201 0.01674 -999.00000 680.00000 -999.00000 
0.43442 0.75000 0.00580 0.25815 786.28817 0.51590 273.15000 0.05923 -999.00000 680.00000 -999.00000 
0.43651 0.75000 0.00906 -0.06338 760.51694 0.41069 273.15000 0.11890 -999.00000 680.00000 -999.00000 
0.44008 0.75000 0.01265 -0.39750 698.17248 0.26547 273.15000 0.19854 -999.00000 680.00000 -999.00000 
0.44603 0.75000 0.01644 -0.64549 593.63597 0.09641 273.15000 0.36649 -999.00000 680.00000 -999.00000 
0.45595 0.75000 0.01997 -0.70766 479.14370 0.00567 271.87329 0.74436 -999.00000 680.00000 -999.00000 
0.47252 0.75000 0.02310 -0.56631 406.80633 0.00000 272.43782 0.50000 -999.00000 680.00000 -999.00000 
0.50008 0.75000 0.02687 -0.41758 372.46987 0.00000 274.31108 0.00000 -999.00000 680.00000 -999.00000 
0.54481 0.75000 0.03124 -0.36100 349.44805 0.00000 274.36137 0.00000 -999.00000 680.00000 -999.00000 
0.61337 0.75000 0.03536 -0.32183 329.54433 0.00000 274.39487 0.00000 -999.00000 680.00000 -999.00000 
0.70833 0.75000 0.03779 -0.29330 306.74183 0.00000 274.41694 0.00000 -999.00000 680.00000 -999.00000 
0.82185 0.75000 0.03574 -0.25298 278.52872 0.00000 274.44765 0.00000 -999.00000 680.00000 -999.00000 
0.93537 0.75000 0.02864 -0.17561 249.39761 0.00000 274.51098 0.00000 -999.00000 680.00000 -999.00000 
1.03033 0.75000 0.02041 -0.09422 224.21225 0.00000 274.57689 0.00000 -999.00000 680.00000 -999.00000 
1.09888 0.75000 0.01347 -0.03542 202.37681 0.00000 274.62056 0.00000 -999.00000 680.00000 -999.00000 
1.14362 0.75000 0.00830 0.01106 183.71775 0.00000 274.65215 0.00000 -999.00000 680.00000 -999.00000 
1.17118 0.75000 0.00491 0.04852 170.53726 0.00000 274.67718 0.00000 -999.00000 680.00000 -999.00000 
1.18775 0.75000 0.00287 0.07233 162.79749 0.00000 274.69273 0.00000 -999.00000 680.00000 -999.00000 
1.19766 0.75000 0.00165 0.08452 158.50920 0.00000 274.70012 0.00000 -999.00000 680.00000 -999.00000 
1.20361 0.75000 0.00090 0.09153 157.59562 0.00000 274.70569 0.00000 -999.00000 680.00000 -999.00000 
1.20719 0.75000 0.00045 0.09495 161.22434 0.00000 274.71196 0.00000 -999.00000 680.00000 -999.00000 
1.20927 0.75000 0.00018 0.09718 163.66819 0.00000 274.71611 0.00000 -999.00000 680.00000 -999.00000 
1.21036 0.75000 0.00004 0.06668 184.60814 0.00000 274.70215 0.00000 -999.00000 680.00000 -999.00000 
1.21070 0.75000 0.00000 0.04391 211.44155 0.00000 274.69848 0.00000 -999.00000 680.00000 -999.00000 

ZONE T="SLICE_Y_1p4_BINS03_KS_1mm_CUTDATA"
1.39331 1.40000 0.00000 0.02513 239.58995 0.00000 274.69375 0.00000 -999.00000 680.00000 -999.00000 
1.39305 1.40000 -0.00003 0.06705 221.63517 0.00000 274.72328 0.00000 -999.00000 680.00000 -999.00000 
1.39223 1.40000 -0.00014 0.09844 195.87622 0.00000 274.73991 0.00000 -999.00000 680.00000 -999.00000 
1.39066 1.40000 -0.00034 0.09230 190.06134 0.00000 274.73071 0.00000 -999.00000 680.00000 -999.00000 
1.38798 1.40000 -0.00068 0.08891 184.72723 0.00000 274.72427 0.00000 -999.00000 680.00000 -999.00000 
1.38350 1.40000 -0.00124 0.08192 185.93225 0.00000 274.71867 0.00000 -999.00000 680.00000 -999.00000 
1.37604 1.40000 -0.00216 0.07076 190.41138 0.00000 274.71132 0.00000 -999.00000 680.00000 -999.00000 
1.36358 1.40000 -0.00369 0.04974 198.02168 0.00000 274.69660 0.00000 -999.00000 680.00000 -999.00000 
1.34284 1.40000 -0.00624 0.01887 210.42010 0.00000 274.67491 0.00000 -999.00000 680.00000 -999.00000 
1.30919 1.40000 -0.01013 -0.01403 227.19356 0.00000 274.65249 0.00000 -999.00000 680.00000 -999.00000 
1.25762 1.40000 -0.01536 -0.05158 246.75001 0.00000 274.62560 0.00000 -999.00000 680.00000 -999.00000 
1.18618 1.40000 -0.02154 -0.10667 270.53636 0.00000 274.58234 0.00000 -999.00000 680.00000 -999.00000 
1.10078 1.40000 -0.02689 -0.15394 299.72276 0.00000 274.54628 0.00000 -999.00000 680.00000 -999.00000 
1.01538 1.40000 -0.02843 -0.16167 329.45151 0.00000 274.54582 0.00000 -999.00000 680.00000 -999.00000 
0.94395 1.40000 -0.02660 -0.15486 357.11103 0.00000 274.55744 0.00000 -999.00000 680.00000 -999.00000 
0.89237 1.40000 -0.02350 -0.14476 383.76689 0.00198 273.44250 0.50000 -999.00000 680.00000 -999.00000 
0.85872 1.40000 -0.02022 -0.12802 408.64371 0.01356 272.73724 0.69577 -999.00000 680.00000 -999.00000 
0.83799 1.40000 -0.01737 -0.14323 444.01708 0.04482 273.15000 0.30856 -999.00000 680.00000 -999.00000 
0.82552 1.40000 -0.01502 -0.12358 514.69427 0.13386 273.15000 0.18335 -999.00000 680.00000 -999.00000 
0.81807 1.40000 -0.01237 0.03542 621.38977 0.28921 273.15000 0.11484 -999.00000 680.00000 -999.00000 
0.81359 1.40000 -0.00952 0.29215 721.18685 0.44364 273.15000 0.06078 -999.00000 680.00000 -999.00000 
0.81090 1.40000 -0.00681 0.52497 772.05347 0.55552 273.15049 0.01732 -999.00000 680.00000 -999.00000 
0.80933 1.40000 -0.00436 0.67439 788.81537 0.62841 273.35730 0.00081 -999.00000 680.00000 -999.00000 