#+++++++++++++++++++++++++++++++++++++++++++++++++++++++++++++++++++++++++++++++++++++++++++++++++++++++++++++++++++++++++++++++++
#
#   IPW-3 Cut/Slice DATA SUBMITTAL FORM for Test Case ONERAM6, May 18th 2026
#
#       NOMENCLATURE:
#                  X [m]:  X-coordinate of the surface (clean for reference)
#                  Y [m]:  Y-coordinate of the surface (clean for reference)
#                  Z [m]:  Z-coordinate of the surface (clean for reference)
#                 Cp [-]:  Pressure coefficient
#            HTC [W/m2K]:  Convective Heat Transfer Coefficient (on the rough surface)
#               Beta [-]:  Collection efficiency
#                 Ts [K]:  Surface temperature
#                 FF [-]:  Freezing fraction
#                  k [m]:  Surface roughness height if variable (OPTIONAL)
#         RhoIce [kg/m3]:  Ice density (OPTIONAL)
#      HTC_CLEAN [W/m2K]:  Convective Heat Transfer Coefficient on the surface without roughness (OPTIONAL)
#
#                XXmm:  Roughness height used for the case, in mm.
#                       In the zone name, use the format KS_XXmm.
#                       For example, if k_s = 1.5 mm, use KS_1p5mm. 
#                       For Variable roughness, use KS_VAR
#
#
#    FLOW CONDITIONS:
#                                   AOA: 2.0 deg
#                           Mach Number: 0.4 [-]
#       Mean aerodynamic chord (M.A.C.): 0.801673 [m]
#                       Reynolds Number: 4.2558 million (based on MAC)
#                       Freestream Temp: 267.15 [K]
#                        Reference area: 1.1532 [m2]
#               Moment Reference Center: 0.25, 0, 0 [m] (X, Y, Z)
#
#    ICING CONDITIONS:
#                           Icing Time: 1350 [s]
#                                  LWC: 0.51 [g/m3]
#                                  MVD: 20 [μm]
#
#              NOTES: 1. Please use at least 5 decimal places in the numerical values
#                     2. If data are NOT provided, please fill data fields with a numerical value of "-999" 
#
#++++++++++++++++++++++++++++++++++++++++++++++++++++++++++++++++++++++++++++++++++++++++++++++++++++++++++++++++++++

                                                     <- Optional ->                 
VARIABLES = "X" "Y" "Z" "Cp" "HTC" "Beta" "Ts" "FF" "k" "RhoIce" "HTC_CLEAN"

ZONE T="SLICE_Y_0p1_BINS01_KS_1mm_CUTDATA"
1.02809 0.10000 0.00000 0.08286 605.58138 0.00000 274.80453 0.00000 -999.00000 680.00000 -999.00000 
1.02809 0.10000 -0.00000 0.09763 440.67952 0.00000 274.79577 0.00000 -999.00000 680.00000 -999.00000 
1.02807 0.10000 -0.00000 0.11180 252.66806 0.00000 274.77723 0.00000 -999.00000 680.00000 -999.00000 
1.02803 0.10000 -0.00001 0.11454 215.69607 0.00000 274.76497 0.00000 -999.00000 680.00000 -999.00000 
1.02799 0.10000 -0.00001 0.11664 196.92937 0.00000 274.75694 0.00000 -999.00000 680.00000 -999.00000 
1.02793 0.10000 -0.00002 0.11733 183.21757 0.00000 274.74902 0.00000 -999.00000 680.00000 -999.00000 
1.02786 0.10000 -0.00003 0.11814 173.10546 0.00000 274.74259 0.00000 -999.00000 680.00000 -999.00000 
1.02777 0.10000 -0.00004 0.11860 165.59948 0.00000 274.73712 0.00000 -999.00000 680.00000 -999.00000 
1.02767 0.10000 -0.00005 0.11895 160.02483 0.00000 274.73272 0.00000 -999.00000 680.00000 -999.00000 
1.02756 0.10000 -0.00007 0.11914 155.92154 0.00000 274.72920 0.00000 -999.00000 680.00000 -999.00000 
1.02743 0.10000 -0.00009 0.11922 152.94760 0.00000 274.72648 0.00000 -999.00000 680.00000 -999.00000 
1.02728 0.10000 -0.00010 0.11921 150.83630 0.00000 274.72441 0.00000 -999.00000 680.00000 -999.00000 
1.02712 0.10000 -0.00013 0.11912 149.37747 0.00000 274.72288 0.00000 -999.00000 680.00000 -999.00000 
1.02694 0.10000 -0.00015 0.11895 148.40792 0.00000 274.72175 0.00000 -999.00000 680.00000 -999.00000 
1.02675 0.10000 -0.00017 0.11873 147.80273 0.00000 274.72092 0.00000 -999.00000 680.00000 -999.00000 
1.02654 0.10000 -0.00020 0.11844 147.46784 0.00000 274.72032 0.00000 -999.00000 680.00000 -999.00000 
1.02631 0.10000 -0.00023 0.11811 147.33359 0.00000 274.71988 0.00000 -999.00000 680.00000 -999.00000 
1.02606 0.10000 -0.00026 0.11772 147.34924 0.00000 274.71955 0.00000 -999.00000 680.00000 -999.00000 
1.02579 0.10000 -0.00030 0.11729 147.47794 0.00000 274.71929 0.00000 -999.00000 680.00000 -999.00000 
1.02550 0.10000 -0.00033 0.11682 147.69371 0.00000 274.71909 0.00000 -999.00000 680.00000 -999.00000 
1.02519 0.10000 -0.00037 0.11630 147.97884 0.00000 274.71891 0.00000 -999.00000 680.00000 -999.00000 
1.02486 0.10000 -0.00042 0.11574 148.32102 0.00000 274.71875 0.00000 -999.00000 680.00000 -999.00000 
1.02450 0.10000 -0.00046 0.11514 148.71161 0.00000 274.71860 0.00000 -999.00000 680.00000 -999.00000 
1.02412 0.10000 -0.00051 0.11450 149.14439 0.00000 274.71846 0.00000 -999.00000 680.00000 -999.00000 
1.02371 0.10000 -0.00056 0.11381 149.61461 0.00000 274.71831 0.00000 -999.00000 680.00000 -999.00000 
1.02327 0.10000 -0.00062 0.11308 150.11838 0.00000 274.71815 0.00000 -999.00000 680.00000 -999.00000 
1.02280 0.10000 -0.00068 0.11231 150.65194 0.00000 274.71798 0.00000 -999.00000 680.00000 -999.00000 
1.02230 0.10000 -0.00074 0.11149 151.21161 0.00000 274.71779 0.00000 -999.00000 680.00000 -999.00000 
1.02177 0.10000 -0.00081 0.11063 151.79485 0.00000 274.71758 0.00000 -999.00000 680.00000 -999.00000 
1.02120 0.10000 -0.00088 0.10972 152.40035 0.00000 274.71734 0.00000 -999.00000 680.00000 -999.00000 
1.02059 0.10000 -0.00096 0.10876 153.02716 0.00000 274.71708 0.00000 -999.00000 680.00000 -999.00000 
1.01994 0.10000 -0.00104 0.10775 153.67453 0.00000 274.71678 0.00000 -999.00000 680.00000 -999.00000 
1.01925 0.10000 -0.00113 0.10669 154.34193 0.00000 274.71645 0.00000 -999.00000 680.00000 -999.00000 
1.01852 0.10000 -0.00122 0.10557 155.02893 0.00000 274.71608 0.00000 -999.00000 680.00000 -999.00000 
1.01773 0.10000 -0.00132 0.10439 155.73525 0.00000 274.71567 0.00000 -999.00000 680.00000 -999.00000 
1.01690 0.10000 -0.00143 0.10316 156.46068 0.00000 274.71522 0.00000 -999.00000 680.00000 -999.00000 
1.01601 0.10000 -0.00154 0.10186 157.20507 0.00000 274.71472 0.00000 -999.00000 680.00000 -999.00000 
1.01506 0.10000 -0.00166 0.10050 157.96830 0.00000 274.71417 0.00000 -999.00000 680.00000 -999.00000 
1.01405 0.10000 -0.00178 0.09907 158.75029 0.00000 274.71357 0.00000 -999.00000 680.00000 -999.00000 
1.01297 0.10000 -0.00192 0.09756 159.55095 0.00000 274.71292 0.00000 -999.00000 680.00000 -999.00000 
1.01183 0.10000 -0.00206 0.09599 160.37019 0.00000 274.71220 0.00000 -999.00000 680.00000 -999.00000 
1.01060 0.10000 -0.00221 0.09433 161.20789 0.00000 274.71143 0.00000 -999.00000 680.00000 -999.00000 
1.00930 0.10000 -0.00237 0.09259 162.06392 0.00000 274.71058 0.00000 -999.00000 680.00000 -999.00000 
1.00791 0.10000 -0.00255 0.09076 162.93815 0.00000 274.70966 0.00000 -999.00000 680.00000 -999.00000 
1.00643 0.10000 -0.00273 0.08885 163.83044 0.00000 274.70867 0.00000 -999.00000 680.00000 -999.00000 
1.00485 0.10000 -0.00292 0.08683 164.74066 0.00000 274.70760 0.00000 -999.00000 680.00000 -999.00000 
1.00317 0.10000 -0.00313 0.08472 165.66880 0.00000 274.70644 0.00000 -999.00000 680.00000 -999.00000 
1.00137 0.10000 -0.00335 0.08250 166.61496 0.00000 274.70519 0.00000 -999.00000 680.00000 -999.00000 
0.99946 0.10000 -0.00359 0.08016 167.57952 0.00000 274.70384 0.00000 -999.00000 680.00000 -999.00000 
0.99742 0.10000 -0.00384 0.07771 168.56331 0.00000 274.70238 0.00000 -999.00000 680.00000 -999.00000 
0.99524 0.10000 -0.00410 0.07512 169.56786 0.00000 274.70081 0.00000 -999.00000 680.00000 -999.00000 
0.99292 0.10000 -0.00439 0.07239 170.59583 0.00000 274.69912 0.00000 -999.00000 680.00000 -999.00000 
0.99044 0.10000 -0.00469 0.06951 171.65179 0.00000 274.69730 0.00000 -999.00000 680.00000 -999.00000 
0.98780 0.10000 -0.00502 0.06645 172.74338 0.00000 274.69534 0.00000 -999.00000 680.00000 -999.00000 
0.98499 0.10000 -0.00536 0.06321 173.88435 0.00000 274.69323 0.00000 -999.00000 680.00000 -999.00000 
0.98198 0.10000 -0.00573 0.05972 175.10223 0.00000 274.69095 0.00000 -999.00000 680.00000 -999.00000 
0.97878 0.10000 -0.00613 0.05599 176.43493 0.00000 274.68851 0.00000 -999.00000 680.00000 -999.00000 
0.97537 0.10000 -0.00655 0.05204 177.89499 0.00000 274.68595 0.00000 -999.00000 680.00000 -999.00000 
0.97174 0.10000 -0.00700 0.04790 179.45846 0.00000 274.68326 0.00000 -999.00000 680.00000 -999.00000 
0.96786 0.10000 -0.00748 0.04355 181.09483 0.00000 274.68041 0.00000 -999.00000 680.00000 -999.00000 
0.96374 0.10000 -0.00799 0.03897 182.79522 0.00000 274.67738 0.00000 -999.00000 680.00000 -999.00000 
0.95934 0.10000 -0.00853 0.03417 184.56921 0.00000 274.67416 0.00000 -999.00000 680.00000 -999.00000 
0.95466 0.10000 -0.00910 0.02914 186.42390 0.00000 274.67077 0.00000 -999.00000 680.00000 -999.00000 
0.94969 0.10000 -0.00971 0.02392 188.35672 0.00000 274.66721 0.00000 -999.00000 680.00000 -999.00000 
0.94439 0.10000 -0.01035 0.01851 190.35580 0.00000 274.66350 0.00000 -999.00000 680.00000 -999.00000 
0.93877 0.10000 -0.01103 0.01292 192.40924 0.00000 274.65962 0.00000 -999.00000 680.00000 -999.00000 
0.93279 0.10000 -0.01175 0.00717 194.50833 0.00000 274.65560 0.00000 -999.00000 680.00000 -999.00000 
0.92644 0.10000 -0.01250 0.00129 196.64207 0.00000 274.65145 0.00000 -999.00000 680.00000 -999.00000 
0.91971 0.10000 -0.01329 -0.00469 198.79852 0.00000 274.64719 0.00000 -999.00000 680.00000 -999.00000 
0.91258 0.10000 -0.01411 -0.01074 200.96393 0.00000 274.64284 0.00000 -999.00000 680.00000 -999.00000 
0.90502 0.10000 -0.01497 -0.01683 203.12052 0.00000 274.63841 0.00000 -999.00000 680.00000 -999.00000 
0.89703 0.10000 -0.01587 -0.02292 205.25406 0.00000 274.63394 0.00000 -999.00000 680.00000 -999.00000 
0.88858 0.10000 -0.01680 -0.02899 207.35189 0.00000 274.62945 0.00000 -999.00000 680.00000 -999.00000 
0.87966 0.10000 -0.01777 -0.03501 209.40004 0.00000 274.62495 0.00000 -999.00000 680.00000 -999.00000 
0.87026 0.10000 -0.01878 -0.04096 211.38944 0.00000 274.62047 0.00000 -999.00000 680.00000 -999.00000 
0.86035 0.10000 -0.01981 -0.04682 213.31443 0.00000 274.61601 0.00000 -999.00000 680.00000 -999.00000 
0.84994 0.10000 -0.02088 -0.05259 215.17131 0.00000 274.61158 0.00000 -999.00000 680.00000 -999.00000 
0.83901 0.10000 -0.02198 -0.05827 216.96027 0.00000 274.60719 0.00000 -999.00000 680.00000 -999.00000 
0.82755 0.10000 -0.02311 -0.06388 218.68751 0.00000 274.60280 0.00000 -999.00000 680.00000 -999.00000 
0.81556 0.10000 -0.02428 -0.06946 220.36794 0.00000 274.59842 0.00000 -999.00000 680.00000 -999.00000 
0.80304 0.10000 -0.02547 -0.07504 222.02204 0.00000 274.59400 0.00000 -999.00000 680.00000 -999.00000 
0.78998 0.10000 -0.02669 -0.08067 223.67405 0.00000 274.58952 0.00000 -999.00000 680.00000 -999.00000 
0.77640 0.10000 -0.02793 -0.08639 225.35103 0.00000 274.58496 0.00000 -999.00000 680.00000 -999.00000 
0.76230 0.10000 -0.02920 -0.09226 227.08354 0.00000 274.58028 0.00000 -999.00000 680.00000 -999.00000 
0.74768 0.10000 -0.03049 -0.09830 228.90581 0.00000 274.57545 0.00000 -999.00000 680.00000 -999.00000 
0.73258 0.10000 -0.03179 -0.10453 230.85100 0.00000 274.57048 0.00000 -999.00000 680.00000 -999.00000 
0.71701 0.10000 -0.03310 -0.11097 232.94818 0.00000 274.56536 0.00000 -999.00000 680.00000 -999.00000 
0.70099 0.10000 -0.03442 -0.11759 235.22145 0.00000 274.56013 0.00000 -999.00000 680.00000 -999.00000 
0.68456 0.10000 -0.03573 -0.12434 237.68942 0.00000 274.55482 0.00000 -999.00000 680.00000 -999.00000 
0.66774 0.10000 -0.03702 -0.13113 240.36219 0.00000 274.54953 0.00000 -999.00000 680.00000 -999.00000 
0.65058 0.10000 -0.03829 -0.13786 243.23799 0.00000 274.54435 0.00000 -999.00000 680.00000 -999.00000 
0.63311 0.10000 -0.03952 -0.14439 246.30507 0.00000 274.53939 0.00000 -999.00000 680.00000 -999.00000 
0.61539 0.10000 -0.04069 -0.15057 249.54460 0.00000 274.53479 0.00000 -999.00000 680.00000 -999.00000 
0.59746 0.10000 -0.04180 -0.15622 252.92816 0.00000 274.53071 0.00000 -999.00000 680.00000 -999.00000 
0.57937 0.10000 -0.04283 -0.16115 256.41648 0.00000 274.52729 0.00000 -999.00000 680.00000 -999.00000 
0.56117 0.10000 -0.04376 -0.16522 259.96754 0.00000 274.52466 0.00000 -999.00000 680.00000 -999.00000 
0.54291 0.10000 -0.04460 -0.16830 263.54300 0.00000 274.52293 0.00000 -999.00000 680.00000 -999.00000 
0.52466 0.10000 -0.04532 -0.17029 267.10628 0.00000 274.52219 0.00000 -999.00000 680.00000 -999.00000 
0.50646 0.10000 -0.04593 -0.17111 270.62159 0.00000 274.52250 0.00000 -999.00000 680.00000 -999.00000 
0.48837 0.10000 -0.04642 -0.17075 274.05545 0.00000 274.52386 0.00000 -999.00000 680.00000 -999.00000 
0.47043 0.10000 -0.04679 -0.16928 277.38894 0.00000 274.52619 0.00000 -999.00000 680.00000 -999.00000 
0.45271 0.10000 -0.04704 -0.16680 280.62324 0.00000 274.52944 0.00000 -999.00000 680.00000 -999.00000 
0.43525 0.10000 -0.04718 -0.16338 283.75826 0.00000 274.53351 0.00000 -999.00000 680.00000 -999.00000 
0.41809 0.10000 -0.04722 -0.15918 286.79490 0.00000 274.53826 0.00000 -999.00000 680.00000 -999.00000 
0.40127 0.10000 -0.04715 -0.15439 289.75282 0.00000 274.54353 0.00000 -999.00000 680.00000 -999.00000 
0.38484 0.10000 -0.04700 -0.14916 292.66026 0.00000 274.54917 0.00000 -999.00000 680.00000 -999.00000 
0.36882 0.10000 -0.04676 -0.14364 295.54382 0.00000 274.55507 0.00000 -999.00000 680.00000 -999.00000 
0.35325 0.10000 -0.04646 -0.13799 298.43129 0.00000 274.56108 0.00000 -999.00000 680.00000 -999.00000 
0.33814 0.10000 -0.04609 -0.13232 301.35543 0.00000 274.56710 0.00000 -999.00000 680.00000 -999.00000 
0.32353 0.10000 -0.04566 -0.12674 304.34907 0.00000 274.57303 0.00000 -999.00000 680.00000 -999.00000 
0.30943 0.10000 -0.04519 -0.12130 307.43844 0.00000 274.57884 0.00000 -999.00000 680.00000 -999.00000 
0.29584 0.10000 -0.04467 -0.11607 310.64429 0.00000 274.58447 0.00000 -999.00000 680.00000 -999.00000 
0.28278 0.10000 -0.04413 -0.11105 313.98603 0.00000 274.58991 0.00000 -999.00000 680.00000 -999.00000 
0.27026 0.10000 -0.04355 -0.10627 317.47794 0.00000 274.59516 0.00000 -999.00000 680.00000 -999.00000 
0.25827 0.10000 -0.04294 -0.10170 321.13019 0.00000 274.60022 0.00000 -999.00000 680.00000 -999.00000 
0.24681 0.10000 -0.04232 -0.09731 324.94445 0.00000 274.60512 0.00000 -999.00000 680.00000 -999.00000 
0.23588 0.10000 -0.04168 -0.09308 328.91681 0.00000 274.60989 0.00000 -999.00000 680.00000 -999.00000 
0.22547 0.10000 -0.04102 -0.08896 333.03939 0.00000 274.61457 0.00000 -999.00000 680.00000 -999.00000 
0.21557 0.10000 -0.04035 -0.08494 337.29994 0.00000 274.61916 0.00000 -999.00000 680.00000 -999.00000 
0.20617 0.10000 -0.03967 -0.08098 341.69118 0.00000 274.62370 0.00000 -999.00000 680.00000 -999.00000 
0.19725 0.10000 -0.03898 -0.07703 346.19082 0.00000 274.62823 0.00000 -999.00000 680.00000 -999.00000 
0.18880 0.10000 -0.03829 -0.07310 350.77038 0.00000 274.63274 0.00000 -999.00000 680.00000 -999.00000 
0.18081 0.10000 -0.03760 -0.06916 355.41160 0.00000 274.63724 0.00000 -999.00000 680.00000 -999.00000 
0.17325 0.10000 -0.03691 -0.06522 360.08680 0.00000 274.64173 0.00000 -999.00000 680.00000 -999.00000 
0.16611 0.10000 -0.03622 -0.06131 364.76788 0.00000 274.64617 0.00000 -999.00000 680.00000 -999.00000 
0.15938 0.10000 -0.03553 -0.05744 369.43132 0.00000 274.65055 0.00000 -999.00000 680.00000 -999.00000 
0.15304 0.10000 -0.03486 -0.05362 374.03863 0.00000 274.65484 0.00000 -999.00000 680.00000 -999.00000 
0.14706 0.10000 -0.03419 -0.04993 378.54549 0.00000 274.65899 0.00000 -999.00000 680.00000 -999.00000 
0.14143 0.10000 -0.03353 -0.04643 382.91447 0.00000 274.66292 0.00000 -999.00000 680.00000 -999.00000 
0.13614 0.10000 -0.03289 -0.04324 387.11792 0.00000 274.66653 0.00000 -999.00000 680.00000 -999.00000 
0.13116 0.10000 -0.03225 -0.04047 391.14392 0.00000 274.56778 0.00000 -999.00000 680.00000 -999.00000 
0.12649 0.10000 -0.03164 -0.03816 394.96336 0.00000 274.24243 0.00000 -999.00000 680.00000 -999.00000 
0.12209 0.10000 -0.03104 -0.03637 398.49135 0.00000 273.80603 0.23675 -999.00000 680.00000 -999.00000 
0.11796 0.10000 -0.03045 -0.03534 401.62337 0.00000 273.50562 0.36712 -999.00000 680.00000 -999.00000 
0.11409 0.10000 -0.02989 -0.03554 404.38925 0.00000 273.17362 0.45799 -999.00000 680.00000 -999.00000 
0.11045 0.10000 -0.02934 -0.03761 407.11930 0.00000 273.04026 0.49660 -999.00000 680.00000 -999.00000 
0.10704 0.10000 -0.02882 -0.04165 410.40231 0.00000 273.15000 0.28243 -999.00000 680.00000 -999.00000 
0.10384 0.10000 -0.02831 -0.04738 414.63383 0.00000 273.15000 0.19837 -999.00000 680.00000 -999.00000 
0.10084 0.10000 -0.02781 -0.05530 420.13261 0.00000 273.15000 0.15242 -999.00000 680.00000 -999.00000 
0.09803 0.10000 -0.02733 -0.06486 427.57082 0.00000 273.15000 0.12320 -999.00000 680.00000 -999.00000 
0.09538 0.10000 -0.02686 -0.07466 437.07020 0.00000 273.15000 0.10299 -999.00000 680.00000 -999.00000 
0.09291 0.10000 -0.02638 -0.08440 448.14064 0.00000 273.15000 0.08823 -999.00000 680.00000 -999.00000 
0.09059 0.10000 -0.02590 -0.09322 460.57649 0.00425 273.15000 0.07713 -999.00000 680.00000 -999.00000 
0.08841 0.10000 -0.02541 -0.09987 473.97457 0.01776 273.15000 0.06879 -999.00000 680.00000 -999.00000 
0.08637 0.10000 -0.02492 -0.10395 487.71055 0.03724 273.15000 0.06250 -999.00000 680.00000 -999.00000 
0.08445 0.10000 -0.02441 -0.10478 501.49511 0.05845 273.15000 0.05760 -999.00000 680.00000 -999.00000 
0.08266 0.10000 -0.02388 -0.10164 514.97136 0.08106 273.15000 0.05365 -999.00000 680.00000 -999.00000 
0.08098 0.10000 -0.02335 -0.09455 527.74656 0.10451 273.15000 0.05036 -999.00000 680.00000 -999.00000 
0.07940 0.10000 -0.02280 -0.08331 539.77036 0.12847 273.15000 0.04754 -999.00000 680.00000 -999.00000 
0.07792 0.10000 -0.02224 -0.06763 550.86342 0.15274 273.15000 0.04505 -999.00000 680.00000 -999.00000 
0.07653 0.10000 -0.02168 -0.04800 560.76123 0.17692 273.15000 0.04280 -999.00000 680.00000 -999.00000 
0.07522 0.10000 -0.02110 -0.02463 569.52505 0.20086 273.15000 0.04071 -999.00000 680.00000 -999.00000 
0.07400 0.10000 -0.02052 0.00239 577.08603 0.22446 273.15000 0.03874 -999.00000 680.00000 -999.00000 
0.07285 0.10000 -0.01993 0.03232 583.25035 0.24738 273.15000 0.03684 -999.00000 680.00000 -999.00000 
0.07178 0.10000 -0.01933 0.06463 588.11049 0.26949 273.15000 0.03498 -999.00000 680.00000 -999.00000 
0.07076 0.10000 -0.01874 0.09883 591.74193 0.29072 273.15000 0.03314 -999.00000 680.00000 -999.00000 
0.06982 0.10000 -0.01814 0.13398 594.26023 0.31092 273.15000 0.03134 -999.00000 680.00000 -999.00000 
0.06893 0.10000 -0.01755 0.16981 596.11671 0.33034 273.15000 0.02955 -999.00000 680.00000 -999.00000 
0.06809 0.10000 -0.01696 0.20640 597.39628 0.34914 273.15000 0.02777 -999.00000 680.00000 -999.00000 
0.06731 0.10000 -0.01637 0.24326 597.79789 0.36714 273.15000 0.02598 -999.00000 680.00000 -999.00000 
0.06657 0.10000 -0.01578 0.28002 597.32872 0.38425 273.15000 0.02417 -999.00000 680.00000 -999.00000 
0.06588 0.10000 -0.01520 0.31642 596.04745 0.40047 273.15000 0.02223 -999.00000 680.00000 -999.00000 
0.06523 0.10000 -0.01462 0.35185 594.06518 0.41570 273.15000 0.02008 -999.00000 680.00000 -999.00000 
0.06463 0.10000 -0.01405 0.38624 591.82414 0.43019 273.15000 0.01784 -999.00000 680.00000 -999.00000 
0.06406 0.10000 -0.01349 0.41977 589.42161 0.44410 273.15000 0.01565 -999.00000 680.00000 -999.00000 
0.06352 0.10000 -0.01293 0.45207 586.66875 0.45732 273.15000 0.01355 -999.00000 680.00000 -999.00000 
0.06302 0.10000 -0.01238 0.48316 583.75700 0.46996 273.15000 0.01150 -999.00000 680.00000 -999.00000 
0.06256 0.10000 -0.01184 0.51316 580.66690 0.48208 273.15000 0.00951 -999.00000 680.00000 -999.00000 
0.06212 0.10000 -0.01130 0.54177 577.24487 0.49355 273.15000 0.00763 -999.00000 680.00000 -999.00000 
0.06171 0.10000 -0.01077 0.56902 573.69648 0.50445 273.15000 0.00587 -999.00000 680.00000 -999.00000 
0.06132 0.10000 -0.01024 0.59492 570.00713 0.51480 273.15000 0.00419 -999.00000 680.00000 -999.00000 
0.06097 0.10000 -0.00973 0.61922 566.17884 0.52451 273.15000 0.00262 -999.00000 680.00000 -999.00000 
0.06063 0.10000 -0.00922 0.64206 562.46035 0.53372 273.15000 0.00113 -999.00000 680.00000 -999.00000 
0.06032 0.10000 -0.00871 0.66331 558.81463 0.54239 273.17451 0.00020 -999.00000 680.00000 -999.00000 
0.06003 0.10000 -0.00822 0.68294 555.44978 0.55060 273.23282 0.00000 -999.00000 680.00000 -999.00000 
0.05976 0.10000 -0.00773 0.70126 552.42076 0.55850 273.29766 0.00000 -999.00000 680.00000 -999.00000 
0.05952 0.10000 -0.00724 0.71811 549.19996 0.56589 273.35609 0.00000 -999.00000 680.00000 -999.00000 
0.05929 0.10000 -0.00676 0.73329 545.65623 0.57254 273.40667 0.00000 -999.00000 680.00000 -999.00000 
0.05908 0.10000 -0.00628 0.74644 542.27796 0.57841 273.44894 0.00000 -999.00000 680.00000 -999.00000 
0.05888 0.10000 -0.00581 0.75786 540.17983 0.58393 273.48072 0.00000 -999.00000 680.00000 -999.00000 
0.05871 0.10000 -0.00535 0.76823 539.07095 0.58948 273.49808 0.00000 -999.00000 680.00000 -999.00000 
0.05854 0.10000 -0.00488 0.77709 537.10091 0.59449 273.50419 0.00000 -999.00000 680.00000 -999.00000 
0.05840 0.10000 -0.00442 0.78335 534.57635 0.59836 273.50185 0.00000 -999.00000 680.00000 -999.00000 
0.05827 0.10000 -0.00397 0.78731 535.13216 0.60161 273.49978 0.00000 -999.00000 680.00000 -999.00000 
0.05816 0.10000 -0.00355 0.79136 537.95172 0.60508 273.50175 0.00000 -999.00000 680.00000 -999.00000 
0.05806 0.10000 -0.00308 0.79515 533.11328 0.60640 273.48738 0.00000 -999.00000 680.00000 -999.00000 
0.05797 0.10000 -0.00259 0.79186 515.97937 0.60544 273.43857 0.00002 -999.00000 680.00000 -999.00000 
0.05790 0.10000 -0.00219 0.78599 515.26136 0.60928 273.42396 0.00001 -999.00000 680.00000 -999.00000 
0.05784 0.10000 -0.00183 0.78780 538.76102 0.61398 273.48115 0.00000 -999.00000 680.00000 -999.00000 
0.05779 0.10000 -0.00125 0.78697 560.23800 0.61497 273.53101 0.00000 -999.00000 680.00000 -999.00000 
0.05776 0.10000 -0.00060 0.77575 577.51713 0.61493 273.54362 0.00000 -999.00000 680.00000 -999.00000 
0.05774 0.10000 -0.00015 0.75872 589.84183 0.61150 273.51642 0.00000 -999.00000 680.00000 -999.00000 
0.05773 0.10000 0.00000 0.74292 576.86604 0.60226 273.44968 0.00000 -999.00000 680.00000 -999.00000 
0.05774 0.10000 0.00015 0.74045 559.87244 0.59615 273.42470 0.00000 -999.00000 680.00000 -999.00000 
0.05776 0.10000 0.00060 0.73905 571.56076 0.59831 273.43153 0.00000 -999.00000 680.00000 -999.00000 
0.05779 0.10000 0.00125 0.72189 596.41960 0.60031 273.38818 0.00000 -999.00000 680.00000 -999.00000 
0.05784 0.10000 0.00183 0.68711 599.96320 0.59356 273.26448 0.00015 -999.00000 680.00000 -999.00000 
0.05790 0.10000 0.00219 0.66266 586.81890 0.58520 273.17149 0.00037 -999.00000 680.00000 -999.00000 
0.05797 0.10000 0.00259 0.65589 594.24457 0.58443 273.16182 0.00058 -999.00000 680.00000 -999.00000 
0.05806 0.10000 0.00308 0.63375 611.48715 0.58160 273.15371 0.00166 -999.00000 680.00000 -999.00000 
0.05816 0.10000 0.00355 0.60165 614.40473 0.57279 273.15000 0.00343 -999.00000 680.00000 -999.00000 
0.05827 0.10000 0.00397 0.57764 612.76808 0.56486 273.15000 0.00478 -999.00000 680.00000 -999.00000 
0.05840 0.10000 0.00442 0.55629 619.02810 0.55975 273.15000 0.00611 -999.00000 680.00000 -999.00000 
0.05854 0.10000 0.00488 0.52847 627.83839 0.55356 273.15000 0.00777 -999.00000 680.00000 -999.00000 
0.05871 0.10000 0.00535 0.49712 632.91038 0.54524 273.15000 0.00951 -999.00000 680.00000 -999.00000 
0.05888 0.10000 0.00581 0.46632 635.51311 0.53628 273.15000 0.01122 -999.00000 680.00000 -999.00000 
0.05908 0.10000 0.00628 0.43617 639.41915 0.52768 273.15000 0.01301 -999.00000 680.00000 -999.00000 
0.05929 0.10000 0.00676 0.40405 644.71033 0.51866 273.15000 0.01500 -999.00000 680.00000 -999.00000 
0.05952 0.10000 0.00724 0.36957 649.43782 0.50853 273.15000 0.01713 -999.00000 680.00000 -999.00000 
0.05976 0.10000 0.00773 0.33397 652.90352 0.49749 273.15000 0.01933 -999.00000 680.00000 -999.00000 
0.06003 0.10000 0.00822 0.29784 655.54643 0.48601 273.15000 0.02162 -999.00000 680.00000 -999.00000 
0.06032 0.10000 0.00871 0.26133 658.31519 0.47443 273.15000 0.02405 -999.00000 680.00000 -999.00000 
0.06063 0.10000 0.00922 0.22358 661.13493 0.46247 273.15000 0.02668 -999.00000 680.00000 -999.00000 
0.06097 0.10000 0.00973 0.18469 663.71131 0.44999 273.15000 0.02943 -999.00000 680.00000 -999.00000 
0.06132 0.10000 0.01024 0.14491 666.13748 0.43703 273.15000 0.03224 -999.00000 680.00000 -999.00000 
0.06171 0.10000 0.01077 0.10395 668.09438 0.42339 273.15000 0.03517 -999.00000 680.00000 -999.00000 
0.06212 0.10000 0.01130 0.06233 669.62036 0.40920 273.15000 0.03806 -999.00000 680.00000 -999.00000 
0.06256 0.10000 0.01184 0.02002 670.79810 0.39449 273.15000 0.04063 -999.00000 680.00000 -999.00000 
0.06302 0.10000 0.01238 -0.02306 671.38398 0.37912 273.15000 0.04303 -999.00000 680.00000 -999.00000 
0.06352 0.10000 0.01293 -0.06638 671.62066 0.36323 273.15000 0.04552 -999.00000 680.00000 -999.00000 
0.06406 0.10000 0.01349 -0.11018 671.58594 0.34671 273.15000 0.04811 -999.00000 680.00000 -999.00000 
0.06463 0.10000 0.01405 -0.15451 671.04297 0.32941 273.15000 0.05084 -999.00000 680.00000 -999.00000 
0.06523 0.10000 0.01462 -0.19881 670.25701 0.31149 273.15000 0.05375 -999.00000 680.00000 -999.00000 
0.06588 0.10000 0.01520 -0.24336 669.15588 0.29270 273.15000 0.05690 -999.00000 680.00000 -999.00000 
0.06657 0.10000 0.01578 -0.28804 667.19918 0.27274 273.15000 0.06031 -999.00000 680.00000 -999.00000 
0.06731 0.10000 0.01637 -0.33184 664.27700 0.25173 273.15000 0.06404 -999.00000 680.00000 -999.00000 
0.06809 0.10000 0.01696 -0.37437 660.37443 0.22968 273.15000 0.06823 -999.00000 680.00000 -999.00000 
0.06893 0.10000 0.01755 -0.41508 655.50872 0.20670 273.15000 0.07302 -999.00000 680.00000 -999.00000 
0.06982 0.10000 0.01814 -0.45331 650.07550 0.18304 273.15000 0.07867 -999.00000 680.00000 -999.00000 
0.07076 0.10000 0.01874 -0.48926 644.01885 0.15847 273.15000 0.08547 -999.00000 680.00000 -999.00000 
0.07178 0.10000 0.01933 -0.52258 636.79583 0.13271 273.15000 0.09380 -999.00000 680.00000 -999.00000 
0.07285 0.10000 0.01993 -0.55199 628.27295 0.10591 273.15000 0.10433 -999.00000 680.00000 -999.00000 
0.07400 0.10000 0.02052 -0.57688 618.40842 0.07822 273.15000 0.11815 -999.00000 680.00000 -999.00000 
0.07522 0.10000 0.02110 -0.59663 607.11882 0.04990 273.15000 0.13726 -999.00000 680.00000 -999.00000 
0.07653 0.10000 0.02168 -0.61046 594.64864 0.02157 273.15000 0.16568 -999.00000 680.00000 -999.00000 
0.07792 0.10000 0.02224 -0.61843 581.10268 0.00380 273.15000 0.21120 -999.00000 680.00000 -999.00000 
0.07940 0.10000 0.02280 -0.62053 566.40568 0.00005 273.15000 0.29246 -999.00000 680.00000 -999.00000 
0.08098 0.10000 0.02335 -0.61646 550.86072 0.00000 273.11663 0.47815 -999.00000 680.00000 -999.00000 
0.08266 0.10000 0.02388 -0.60686 534.69584 0.00000 272.01688 0.70806 -999.00000 680.00000 -999.00000 
0.08445 0.10000 0.02441 -0.59235 517.97694 0.00000 271.52363 0.63937 -999.00000 680.00000 -999.00000 
0.08637 0.10000 0.02492 -0.57319 501.17238 0.00000 273.14106 0.23675 -999.00000 680.00000 -999.00000 
0.08841 0.10000 0.02541 -0.55056 484.73834 0.00000 274.19624 0.00000 -999.00000 680.00000 -999.00000 
0.09059 0.10000 0.02590 -0.52553 469.04140 0.00000 274.21903 0.00000 -999.00000 680.00000 -999.00000 
0.09291 0.10000 0.02638 -0.49876 454.82662 0.00000 274.24351 0.00000 -999.00000 680.00000 -999.00000 
0.09538 0.10000 0.02686 -0.47178 442.59087 0.00000 274.26824 0.00000 -999.00000 680.00000 -999.00000 
0.09803 0.10000 0.02733 -0.44565 432.55904 0.00000 274.29226 0.00000 -999.00000 680.00000 -999.00000 
0.10084 0.10000 0.02781 -0.42066 425.25131 0.00000 274.31540 0.00000 -999.00000 680.00000 -999.00000 
0.10384 0.10000 0.02831 -0.39830 420.50146 0.00000 274.33625 0.00000 -999.00000 680.00000 -999.00000 
0.10704 0.10000 0.02882 -0.37918 417.46979 0.00000 274.35417 0.00000 -999.00000 680.00000 -999.00000 
0.11045 0.10000 0.02934 -0.36267 415.67837 0.00000 274.36972 0.00000 -999.00000 680.00000 -999.00000 
0.11409 0.10000 0.02989 -0.34904 414.58449 0.00000 274.38258 0.00000 -999.00000 680.00000 -999.00000 
0.11796 0.10000 0.03045 -0.33815 413.43286 0.00000 274.39281 0.00000 -999.00000 680.00000 -999.00000 
0.12209 0.10000 0.03104 -0.32925 411.76225 0.00000 274.40107 0.00000 -999.00000 680.00000 -999.00000 
0.12649 0.10000 0.03164 -0.32177 409.47797 0.00000 274.40789 0.00000 -999.00000 680.00000 -999.00000 
0.13116 0.10000 0.03225 -0.31537 406.67105 0.00000 274.41361 0.00000 -999.00000 680.00000 -999.00000 
0.13614 0.10000 0.03289 -0.30992 403.43583 0.00000 274.41835 0.00000 -999.00000 680.00000 -999.00000 
0.14143 0.10000 0.03353 -0.30532 399.81645 0.00000 274.42223 0.00000 -999.00000 680.00000 -999.00000 
0.14706 0.10000 0.03419 -0.30139 395.84204 0.00000 274.42541 0.00000 -999.00000 680.00000 -999.00000 
0.15304 0.10000 0.03486 -0.29797 391.56123 0.00000 274.42805 0.00000 -999.00000 680.00000 -999.00000 
0.15938 0.10000 0.03553 -0.29496 387.03501 0.00000 274.43025 0.00000 -999.00000 680.00000 -999.00000 
0.16611 0.10000 0.03622 -0.29224 382.33239 0.00000 274.43213 0.00000 -999.00000 680.00000 -999.00000 
0.17325 0.10000 0.03691 -0.28978 377.51526 0.00000 274.43374 0.00000 -999.00000 680.00000 -999.00000 
0.18081 0.10000 0.03760 -0.28754 372.62701 0.00000 274.43511 0.00000 -999.00000 680.00000 -999.00000 
0.18880 0.10000 0.03829 -0.28546 367.71353 0.00000 274.43629 0.00000 -999.00000 680.00000 -999.00000 
0.19725 0.10000 0.03898 -0.28354 362.81823 0.00000 274.43730 0.00000 -999.00000 680.00000 -999.00000 
0.20617 0.10000 0.03967 -0.28179 357.97190 0.00000 274.43814 0.00000 -999.00000 680.00000 -999.00000 
0.21557 0.10000 0.04035 -0.28018 353.21414 0.00000 274.43884 0.00000 -999.00000 680.00000 -999.00000 
0.22547 0.10000 0.04102 -0.27877 348.57634 0.00000 274.43936 0.00000 -999.00000 680.00000 -999.00000 
0.23588 0.10000 0.04168 -0.27758 344.07162 0.00000 274.43966 0.00000 -999.00000 680.00000 -999.00000 
0.24681 0.10000 0.04232 -0.27663 339.71669 0.00000 274.43975 0.00000 -999.00000 680.00000 -999.00000 