#++++++++++++++++++++++++++++++++++++++++++++++++++++++++++++++++++++++++++++++++++++++++++++++++++++++++++++++++++++
#
#   IPW-3 Ice Shape DATA SUBMITTAL FORM for Test Case ONERAM6, May 18th 2026
#
#       NOMENCLATURE:
#             X_ICED [m]:  X-coordinate of the iced surface
#             Y_ICED [m]:  Y-coordinate of the iced surface
#             Z_ICED [m]:  Z-coordinate of the iced surface
#
#                XXmm:  Roughness height used for the case, in mm.
#                       In the zone name, use the format KS_XXmm.
#                       For example, if k_s = 1.5 mm, use KS_1p5mm. 
#                       For Variable roughness, use KS_VAR
#
#    FLOW CONDITIONS:
#                                   AOA: 2.0 deg
#                           Mach Number: 0.4 [-]
#       Mean aerodynamic chord (M.A.C.): 0.801673 [m]
#                       Reynolds Number: 4.2558 million (based on MAC)
#                       Freestream Temp: 267.15 [K]
#                        Reference area: 1.1532 [m2]
#               Moment Reference Center: 0.25, 0, 0 [m] (X, Y, Z)
#
#              NOTES: 1. Please use at least 5 decimal places in the numerical values
#                     2. If data are NOT provided, please fill data fields with a numerical value of "-999" 
#
#++++++++++++++++++++++++++++++++++++++++++++++++++++++++++++++++++++++++++++++++++++++++++++++++++++++++++++++++++++

AUXDATA NUM_LAYERS  = "insert the number of total ice layers"
VARIABLES = "X_ICED" "Y_ICED" "Z_ICED"

ZONE T="SLICE_Y_0p1_BINS01_KS_1mm_SINGLE_LAYER"
1.02809 0.10000 0.00000 
1.02809 0.10000 -0.00000 
1.02807 0.10000 -0.00000 
1.02803 0.10000 -0.00001 
1.02799 0.10000 -0.00001 
1.02793 0.10000 -0.00002 
1.02786 0.10000 -0.00003 
1.02777 0.10000 -0.00004 
1.02767 0.10000 -0.00005 
1.02756 0.10000 -0.00007 
1.02743 0.10000 -0.00009 
1.02728 0.10000 -0.00010 
1.02712 0.10000 -0.00013 
1.02694 0.10000 -0.00015 
1.02675 0.10000 -0.00017 
1.02654 0.10000 -0.00020 
1.02631 0.10000 -0.00023 
1.02606 0.10000 -0.00026 
1.02579 0.10000 -0.00030 
1.02550 0.10000 -0.00033 
1.02519 0.10000 -0.00037 
1.02486 0.10000 -0.00042 
1.02450 0.10000 -0.00046 
1.02412 0.10000 -0.00051 
1.02371 0.10000 -0.00056 
1.02327 0.10000 -0.00062 
1.02280 0.10000 -0.00068 
1.02230 0.10000 -0.00074 
1.02177 0.10000 -0.00081 
1.02120 0.10000 -0.00088 
1.02059 0.10000 -0.00096 
1.01994 0.10000 -0.00104 
1.01925 0.10000 -0.00113 
1.01852 0.10000 -0.00122 
1.01773 0.10000 -0.00132 
1.01690 0.10000 -0.00143 
1.01601 0.10000 -0.00154 
1.01506 0.10000 -0.00166 
1.01405 0.10000 -0.00178 
1.01297 0.10000 -0.00192 
1.01183 0.10000 -0.00206 
1.01060 0.10000 -0.00221 
1.00930 0.10000 -0.00237 
1.00791 0.10000 -0.00255 
1.00643 0.10000 -0.00273 
1.00485 0.10000 -0.00292 
1.00317 0.10000 -0.00313 
1.00137 0.10000 -0.00335 
0.99946 0.10000 -0.00359 
0.99742 0.10000 -0.00384 
0.99524 0.10000 -0.00410 
0.99292 0.10000 -0.00439 
0.99044 0.10000 -0.00469 
0.98780 0.10000 -0.00502 
0.98499 0.10000 -0.00536 
0.98198 0.10000 -0.00573 
0.97878 0.10000 -0.00613 
0.97537 0.10000 -0.00655 
0.97174 0.10000 -0.00700 
0.96786 0.10000 -0.00748 
0.96374 0.10000 -0.00799 
0.95934 0.10000 -0.00853 
0.95466 0.10000 -0.00910 
0.94969 0.10000 -0.00971 
0.94439 0.10000 -0.01035 
0.93877 0.10000 -0.01103 
0.93279 0.10000 -0.01175 
0.92644 0.10000 -0.01250 
0.91971 0.10000 -0.01329 
0.91258 0.10000 -0.01411 
0.90502 0.10000 -0.01497 
0.89703 0.10000 -0.01587 
0.88858 0.10000 -0.01680 
0.87966 0.10000 -0.01777 
0.87026 0.10000 -0.01878 
0.86035 0.10000 -0.01981 
0.84994 0.10000 -0.02088 
0.83901 0.10000 -0.02198 
0.82755 0.10000 -0.02311 
0.81556 0.10000 -0.02428 
0.80304 0.10000 -0.02547 
0.78998 0.10000 -0.02669 
0.77640 0.10000 -0.02793 
0.76230 0.10000 -0.02920 
0.74768 0.10000 -0.03049 
0.73258 0.10000 -0.03179 
0.71701 0.10000 -0.03310 
0.70099 0.10000 -0.03442 
0.68456 0.10000 -0.03573 
0.66774 0.10000 -0.03702 
0.65058 0.10000 -0.03829 
0.63311 0.10000 -0.03952 
0.61539 0.10000 -0.04069 
0.59746 0.10000 -0.04180 
0.57937 0.10000 -0.04283 
0.56117 0.10000 -0.04376 
0.54291 0.10000 -0.04460 
0.52466 0.10000 -0.04532 
0.50646 0.10000 -0.04593 
0.48837 0.10000 -0.04642 
0.47043 0.10000 -0.04679 
0.45271 0.10000 -0.04704 
0.43525 0.10000 -0.04718 
0.41809 0.10000 -0.04722 
0.40127 0.10000 -0.04715 
0.38484 0.10000 -0.04700 
0.36882 0.10000 -0.04676 
0.35325 0.10000 -0.04646 
0.33814 0.10000 -0.04609 
0.32353 0.10000 -0.04566 
0.30943 0.10000 -0.04519 
0.29584 0.10000 -0.04467 
0.28278 0.10000 -0.04413 
0.27026 0.10000 -0.04355 
0.25827 0.10000 -0.04294 
0.24681 0.10000 -0.04232 
0.23588 0.10000 -0.04168 
0.22547 0.10000 -0.04102 
0.21557 0.10000 -0.04035 
0.20617 0.10000 -0.03967 
0.19725 0.10000 -0.03898 
0.18880 0.10000 -0.03829 
0.18081 0.10000 -0.03760 
0.17325 0.10000 -0.03691 
0.16611 0.10000 -0.03622 
0.15938 0.10000 -0.03553 
0.15304 0.10000 -0.03486 
0.14706 0.10000 -0.03419 
0.14143 0.10000 -0.03353 
0.13614 0.10000 -0.03289 
0.13116 0.10000 -0.03225 
0.12649 0.10000 -0.03164 
0.12253 0.09961 -0.03367 
0.11920 0.09904 -0.03585 
0.11554 0.09899 -0.03817 
0.11083 0.09972 -0.04090 
0.10633 0.10039 -0.04156 
0.10284 0.10055 -0.04211 
0.09955 0.10071 -0.04217 
0.09666 0.10075 -0.04225 
0.09387 0.10083 -0.04214 
0.09121 0.10094 -0.04198 
0.08859 0.10111 -0.04170 
0.08601 0.10134 -0.04134 
0.08347 0.10163 -0.04086 
0.08096 0.10198 -0.04026 
0.07850 0.10236 -0.03951 
0.07611 0.10276 -0.03862 
0.07381 0.10317 -0.03759 
0.07164 0.10357 -0.03640 
0.06960 0.10394 -0.03509 
0.06773 0.10426 -0.03365 
0.06604 0.10453 -0.03213 
0.06452 0.10474 -0.03053 
0.06320 0.10488 -0.02889 
0.06207 0.10495 -0.02723 
0.06111 0.10495 -0.02559 
0.06033 0.10489 -0.02397 
0.05971 0.10477 -0.02239 
0.05924 0.10459 -0.02088 
0.05890 0.10437 -0.01945 
0.05868 0.10410 -0.01810 
0.05857 0.10379 -0.01685 
0.05854 0.10347 -0.01570 
0.05858 0.10312 -0.01464 
0.05869 0.10275 -0.01368 
0.05884 0.10238 -0.01282 
0.05904 0.10201 -0.01204 
0.05926 0.10163 -0.01134 
0.05949 0.10126 -0.01073 
0.05973 0.10091 -0.01019 
0.05996 0.10058 -0.00968 
0.06018 0.10026 -0.00922 
0.06024 0.10005 -0.00874 
0.06003 0.10000 -0.00822 
0.05976 0.10000 -0.00773 
0.05952 0.10000 -0.00724 
0.05929 0.10000 -0.00676 
0.05908 0.10000 -0.00628 
0.05888 0.10000 -0.00581 
0.05871 0.10000 -0.00535 
0.05854 0.10000 -0.00488 
0.05840 0.10000 -0.00442 
0.05827 0.10000 -0.00397 
0.05816 0.10000 -0.00355 
0.05805 0.10000 -0.00308 
0.05797 0.10000 -0.00260 
0.05789 0.10000 -0.00219 
0.05784 0.10000 -0.00183 
0.05779 0.10000 -0.00125 
0.05776 0.10000 -0.00060 
0.05774 0.10000 -0.00015 
0.05773 0.10000 0.00000 
0.05774 0.10000 0.00015 
0.05776 0.10000 0.00060 
0.05779 0.10000 0.00125 
0.05777 0.10004 0.00182 
0.05767 0.10013 0.00216 
0.05764 0.10018 0.00248 
0.05743 0.10035 0.00253 
0.05702 0.10064 0.00252 
0.05657 0.10095 0.00261 
0.05616 0.10125 0.00263 
0.05569 0.10159 0.00276 
0.05519 0.10195 0.00295 
0.05467 0.10235 0.00324 
0.05412 0.10276 0.00361 
0.05357 0.10319 0.00403 
0.05301 0.10362 0.00454 
0.05246 0.10407 0.00513 
0.05193 0.10452 0.00582 
0.05142 0.10496 0.00660 
0.05092 0.10541 0.00748 
0.05046 0.10586 0.00846 
0.05004 0.10630 0.00954 
0.04967 0.10672 0.01073 
0.04935 0.10712 0.01202 
0.04911 0.10750 0.01342 
0.04896 0.10785 0.01492 
0.04889 0.10817 0.01652 
0.04894 0.10844 0.01821 
0.04911 0.10866 0.02001 
0.04942 0.10883 0.02188 
0.04988 0.10893 0.02384 
0.05052 0.10896 0.02586 
0.05135 0.10891 0.02794 
0.05240 0.10875 0.03004 
0.05369 0.10849 0.03218 
0.05526 0.10811 0.03425 
0.05714 0.10758 0.03631 
0.05934 0.10690 0.03817 
0.06191 0.10605 0.03995 
0.06482 0.10504 0.04129 
0.06817 0.10382 0.04241 
0.07178 0.10249 0.04277 
0.07585 0.10093 0.04260 
0.08005 0.09934 0.04117 
0.08441 0.09764 0.03858 
0.08873 0.09603 0.03337 
0.08921 0.09692 0.02816 
0.08806 0.09891 0.02623 
0.08841 0.10000 0.02541 
0.09059 0.10000 0.02590 
0.09291 0.10000 0.02638 
0.09538 0.10000 0.02686 
0.09803 0.10000 0.02733 
0.10084 0.10000 0.02781 
0.10384 0.10000 0.02831 
0.10704 0.10000 0.02882 
0.11045 0.10000 0.02934 
0.11409 0.10000 0.02989 
0.11796 0.10000 0.03045 
0.12209 0.10000 0.03104 
0.12649 0.10000 0.03164 
0.13116 0.10000 0.03225 
0.13614 0.10000 0.03289 
0.14143 0.10000 0.03353 
0.14706 0.10000 0.03419 
0.15304 0.10000 0.03486 
0.15938 0.10000 0.03553 
0.16611 0.10000 0.03622 
0.17325 0.10000 0.03691 
0.18081 0.10000 0.03760 
0.18880 0.10000 0.03829 
0.19725 0.10000 0.03898 
0.20617 0.10000 0.03967 
0.21557 0.10000 0.04035 
0.22547 0.10000 0.04102 
0.23588 0.10000 0.04168 
0.24681 0.10000 0.04232 
0.25827 0.10000 0.04294 
0.27026 0.10000 0.04355 
0.28278 0.10000 0.04413 
0.29584 0.10000 0.04467 
0.30943 0.10000 0.04519 
0.32353 0.10000 0.04566 
0.33814 0.10000 0.04609 
0.35325 0.10000 0.04646 
0.36882 0.10000 0.04676 
0.38484 0.10000 0.04700 
0.40127 0.10000 0.04715 
0.41809 0.10000 0.04722 
0.43525 0.10000 0.04718 
0.45271 0.10000 0.04704 
0.47043 0.10000 0.04679 
0.48837 0.10000 0.04642 
0.50646 0.10000 0.04593 
0.52466 0.10000 0.04532 
0.54291 0.10000 0.04460 
0.56117 0.10000 0.04376 
0.57937 0.10000 0.04283 
0.59746 0.10000 0.04180 
0.61539 0.10000 0.04069 
0.63311 0.10000 0.03952 
0.65058 0.10000 0.03829 
0.66774 0.10000 0.03702 
0.68456 0.10000 0.03573 
0.70099 0.10000 0.03442 
0.71701 0.10000 0.03310 
0.73258 0.10000 0.03179 
0.74768 0.10000 0.03049 
0.76230 0.10000 0.02920 
0.77640 0.10000 0.02793 
0.78998 0.10000 0.02669 
0.80304 0.10000 0.02547 
0.81556 0.10000 0.02428 
0.82755 0.10000 0.02311 
0.83901 0.10000 0.02198 
0.84994 0.10000 0.02088 
0.86035 0.10000 0.01981 
0.87026 0.10000 0.01878 
0.87966 0.10000 0.01777 
0.88858 0.10000 0.01680 
0.89703 0.10000 0.01587 
0.90502 0.10000 0.01497 
0.91258 0.10000 0.01411 
0.91971 0.10000 0.01329 
0.92644 0.10000 0.01250 
0.93279 0.10000 0.01175 
0.93877 0.10000 0.01103 
0.94439 0.10000 0.01035 
0.94969 0.10000 0.00971 
0.95466 0.10000 0.00910 
0.95934 0.10000 0.00853 
0.96374 0.10000 0.00799 
0.96786 0.10000 0.00748 
0.97174 0.10000 0.00700 
0.97537 0.10000 0.00655 
0.97878 0.10000 0.00613 
0.98198 0.10000 0.00573 
0.98499 0.10000 0.00536 
0.98780 0.10000 0.00502 
0.99044 0.10000 0.00469 
0.99292 0.10000 0.00439 
0.99524 0.10000 0.00410 
0.99742 0.10000 0.00384 
0.99946 0.10000 0.00359 
1.00137 0.10000 0.00335 
1.00317 0.10000 0.00313 
1.00485 0.10000 0.00292 
1.00643 0.10000 0.00273 
1.00791 0.10000 0.00255 
1.00930 0.10000 0.00237 
1.01060 0.10000 0.00221 
1.01183 0.10000 0.00206 
1.01297 0.10000 0.00192 
1.01405 0.10000 0.00178 
1.01506 0.10000 0.00166 
1.01601 0.10000 0.00154 
1.01690 0.10000 0.00143 
1.01773 0.10000 0.00132 
1.01852 0.10000 0.00122 
1.01925 0.10000 0.00113 
1.01994 0.10000 0.00104 
1.02059 0.10000 0.00096 
1.02120 0.10000 0.00088 
1.02177 0.10000 0.00081 
1.02230 0.10000 0.00074 
1.02280 0.10000 0.00068 
1.02327 0.10000 0.00062 
1.02371 0.10000 0.00056 
1.02412 0.10000 0.00051 
1.02450 0.10000 0.00046 
1.02486 0.10000 0.00042 
1.02519 0.10000 0.00037 
1.02550 0.10000 0.00033 
1.02579 0.10000 0.00030 
1.02606 0.10000 0.00026 
1.02631 0.10000 0.00023 
1.02654 0.10000 0.00020 
1.02675 0.10000 0.00017 
1.02694 0.10000 0.00015 
1.02712 0.10000 0.00013 
1.02728 0.10000 0.00010 
1.02743 0.10000 0.00009 
1.02756 0.10000 0.00007 
1.02767 0.10000 0.00005 
1.02777 0.10000 0.00004 
1.02786 0.10000 0.00003 
1.02793 0.10000 0.00002 
1.02799 0.10000 0.00001 
1.02803 0.10000 0.00001 
1.02807 0.10000 0.00000 
1.02809 0.10000 0.00000 
1.02809 0.10000 0.00000 

ZONE T="SLICE_Y_0p75_BINS01_KS_1mm_SINGLE_LAYER"
1.21070 0.75000 0.00000 
1.21069 0.75000 -0.00000 
1.21068 0.75000 -0.00000 
1.21065 0.75000 -0.00001 
1.21062 0.75000 -0.00001 
1.21057 0.75000 -0.00002 
1.21051 0.75000 -0.00002 
1.21044 0.75000 -0.00003 
1.21036 0.75000 -0.00004 
1.21027 0.75000 -0.00006 
1.21016 0.75000 -0.00007 
1.21005 0.75000 -0.00008 
1.20992 0.75000 -0.00010 
1.20978 0.75000 -0.00012 
1.20962 0.75000 -0.00014 
1.20945 0.75000 -0.00016 
1.20927 0.75000 -0.00018 
1.20907 0.75000 -0.00021 
1.20886 0.75000 -0.00024 
1.20862 0.75000 -0.00027 
1.20838 0.75000 -0.00030 
1.20811 0.75000 -0.00033 
1.20782 0.75000 -0.00037 
1.20751 0.75000 -0.00041 
1.20719 0.75000 -0.00045 
1.20683 0.75000 -0.00050 
1.20646 0.75000 -0.00054 
1.20606 0.75000 -0.00059 
1.20563 0.75000 -0.00065 
1.20517 0.75000 -0.00071 
1.20469 0.75000 -0.00077 
1.20417 0.75000 -0.00083 
1.20361 0.75000 -0.00090 
1.20303 0.75000 -0.00098 
1.20240 0.75000 -0.00106 
1.20173 0.75000 -0.00114 
1.20101 0.75000 -0.00123 
1.20025 0.75000 -0.00133 
1.19944 0.75000 -0.00143 
1.19858 0.75000 -0.00154 
1.19766 0.75000 -0.00165 
1.19668 0.75000 -0.00177 
1.19564 0.75000 -0.00190 
1.19452 0.75000 -0.00204 
1.19334 0.75000 -0.00219 
1.19207 0.75000 -0.00234 
1.19072 0.75000 -0.00251 
1.18928 0.75000 -0.00269 
1.18775 0.75000 -0.00287 
1.18611 0.75000 -0.00308 
1.18437 0.75000 -0.00329 
1.18251 0.75000 -0.00352 
1.18052 0.75000 -0.00376 
1.17841 0.75000 -0.00402 
1.17615 0.75000 -0.00430 
1.17374 0.75000 -0.00459 
1.17118 0.75000 -0.00491 
1.16844 0.75000 -0.00525 
1.16553 0.75000 -0.00561 
1.16243 0.75000 -0.00599 
1.15912 0.75000 -0.00640 
1.15560 0.75000 -0.00684 
1.15185 0.75000 -0.00730 
1.14786 0.75000 -0.00778 
1.14362 0.75000 -0.00830 
1.13911 0.75000 -0.00884 
1.13432 0.75000 -0.00942 
1.12923 0.75000 -0.01002 
1.12384 0.75000 -0.01065 
1.11812 0.75000 -0.01131 
1.11206 0.75000 -0.01200 
1.10565 0.75000 -0.01272 
1.09888 0.75000 -0.01347 
1.09174 0.75000 -0.01424 
1.08420 0.75000 -0.01505 
1.07626 0.75000 -0.01588 
1.06792 0.75000 -0.01674 
1.05916 0.75000 -0.01762 
1.04998 0.75000 -0.01853 
1.04037 0.75000 -0.01946 
1.03033 0.75000 -0.02041 
1.01986 0.75000 -0.02139 
1.00898 0.75000 -0.02239 
0.99767 0.75000 -0.02340 
0.98596 0.75000 -0.02443 
0.97386 0.75000 -0.02548 
0.96138 0.75000 -0.02653 
0.94854 0.75000 -0.02759 
0.93537 0.75000 -0.02864 
0.92189 0.75000 -0.02967 
0.90814 0.75000 -0.03069 
0.89414 0.75000 -0.03167 
0.87994 0.75000 -0.03261 
0.86556 0.75000 -0.03350 
0.85106 0.75000 -0.03432 
0.83648 0.75000 -0.03507 
0.82185 0.75000 -0.03574 
0.80722 0.75000 -0.03632 
0.79263 0.75000 -0.03681 
0.77813 0.75000 -0.03720 
0.76376 0.75000 -0.03750 
0.74955 0.75000 -0.03770 
0.73556 0.75000 -0.03782 
0.72180 0.75000 -0.03784 
0.70833 0.75000 -0.03779 
0.69516 0.75000 -0.03767 
0.68232 0.75000 -0.03748 
0.66984 0.75000 -0.03723 
0.65773 0.75000 -0.03694 
0.64602 0.75000 -0.03660 
0.63472 0.75000 -0.03622 
0.62383 0.75000 -0.03580 
0.61337 0.75000 -0.03536 
0.60333 0.75000 -0.03490 
0.59372 0.75000 -0.03442 
0.58454 0.75000 -0.03392 
0.57578 0.75000 -0.03340 
0.56743 0.75000 -0.03287 
0.55950 0.75000 -0.03234 
0.55196 0.75000 -0.03179 
0.54481 0.75000 -0.03124 
0.53804 0.75000 -0.03069 
0.53163 0.75000 -0.03013 
0.52594 0.74980 -0.03100 
0.52242 0.74860 -0.03571 
0.51583 0.74932 -0.04026 
0.50882 0.75042 -0.04086 
0.50359 0.75068 -0.04141 
0.49860 0.75095 -0.04105 
0.49422 0.75103 -0.04076 
0.49011 0.75110 -0.04032 
0.48630 0.75113 -0.03991 
0.48275 0.75115 -0.03954 
0.47945 0.75114 -0.03924 
0.47641 0.75111 -0.03902 
0.47359 0.75106 -0.03887 
0.47096 0.75100 -0.03875 
0.46847 0.75096 -0.03864 
0.46607 0.75095 -0.03849 
0.46374 0.75100 -0.03830 
0.46146 0.75109 -0.03805 
0.45921 0.75125 -0.03773 
0.45697 0.75146 -0.03734 
0.45476 0.75173 -0.03685 
0.45256 0.75204 -0.03626 
0.45040 0.75240 -0.03556 
0.44829 0.75278 -0.03473 
0.44625 0.75317 -0.03377 
0.44430 0.75356 -0.03268 
0.44246 0.75393 -0.03147 
0.44075 0.75426 -0.03015 
0.43920 0.75455 -0.02873 
0.43781 0.75478 -0.02724 
0.43659 0.75494 -0.02569 
0.43555 0.75504 -0.02412 
0.43468 0.75507 -0.02255 
0.43397 0.75503 -0.02101 
0.43342 0.75493 -0.01950 
0.43302 0.75478 -0.01805 
0.43275 0.75457 -0.01668 
0.43260 0.75431 -0.01539 
0.43255 0.75402 -0.01419 
0.43260 0.75369 -0.01309 
0.43271 0.75335 -0.01210 
0.43289 0.75298 -0.01121 
0.43311 0.75261 -0.01043 
0.43337 0.75223 -0.00974 
0.43365 0.75185 -0.00915 
0.43394 0.75148 -0.00865 
0.43423 0.75112 -0.00824 
0.43452 0.75078 -0.00790 
0.43478 0.75046 -0.00759 
0.43503 0.75017 -0.00736 
0.43507 0.75000 -0.00699 
0.43484 0.75000 -0.00659 
0.43462 0.75000 -0.00619 
0.43442 0.75000 -0.00580 
0.43424 0.75000 -0.00542 
0.43407 0.75000 -0.00503 
0.43392 0.75000 -0.00466 
0.43377 0.75000 -0.00429 
0.43365 0.75000 -0.00391 
0.43353 0.75000 -0.00354 
0.43343 0.75000 -0.00319 
0.43333 0.75000 -0.00284 
0.43325 0.75000 -0.00247 
0.43318 0.75000 -0.00208 
0.43313 0.75000 -0.00175 
0.43308 0.75000 -0.00146 
0.43304 0.75000 -0.00100 
0.43302 0.75000 -0.00048 
0.43300 0.75000 -0.00012 
0.43296 0.75002 -0.00000 
0.43298 0.75001 0.00012 
0.43287 0.75008 0.00036 
0.43284 0.75012 0.00023 
0.43263 0.75025 -0.00008 
0.43216 0.75055 -0.00026 
0.43186 0.75076 -0.00050 
0.43130 0.75112 -0.00063 
0.43081 0.75145 -0.00078 
0.43022 0.75184 -0.00080 
0.42965 0.75222 -0.00078 
0.42904 0.75264 -0.00068 
0.42839 0.75309 -0.00045 
0.42777 0.75353 -0.00023 
0.42709 0.75401 0.00020 
0.42643 0.75448 0.00058 
0.42574 0.75498 0.00117 
0.42507 0.75548 0.00178 
0.42441 0.75599 0.00253 
0.42377 0.75649 0.00338 
0.42316 0.75698 0.00432 
0.42259 0.75747 0.00537 
0.42207 0.75793 0.00653 
0.42161 0.75838 0.00780 
0.42121 0.75880 0.00919 
0.42089 0.75919 0.01067 
0.42066 0.75954 0.01227 
0.42053 0.75985 0.01396 
0.42051 0.76011 0.01575 
0.42062 0.76031 0.01763 
0.42087 0.76045 0.01958 
0.42127 0.76052 0.02161 
0.42183 0.76053 0.02369 
0.42257 0.76045 0.02581 
0.42349 0.76029 0.02797 
0.42462 0.76003 0.03010 
0.42594 0.75969 0.03225 
0.42751 0.75924 0.03429 
0.42930 0.75868 0.03635 
0.43134 0.75801 0.03817 
0.43366 0.75722 0.04000 
0.43619 0.75634 0.04140 
0.43905 0.75531 0.04280 
0.44203 0.75424 0.04358 
0.44538 0.75301 0.04426 
0.44876 0.75180 0.04419 
0.45247 0.75044 0.04379 
0.45616 0.74915 0.04250 
0.45990 0.74789 0.04043 
0.46364 0.74667 0.03712 
0.46625 0.74613 0.03238 
0.46826 0.74599 0.02449 
0.46557 0.74863 0.02159 
0.46529 0.75000 0.02191 
0.46754 0.75000 0.02229 
0.46995 0.75000 0.02269 
0.47252 0.75000 0.02310 
0.47525 0.75000 0.02352 
0.47816 0.75000 0.02395 
0.48127 0.75000 0.02441 
0.48458 0.75000 0.02488 
0.48810 0.75000 0.02536 
0.49185 0.75000 0.02585 
0.49584 0.75000 0.02636 
0.50008 0.75000 0.02687 
0.50459 0.75000 0.02740 
0.50938 0.75000 0.02794 
0.51446 0.75000 0.02848 
0.51986 0.75000 0.02903 
0.52558 0.75000 0.02958 
0.53163 0.75000 0.03013 
0.53804 0.75000 0.03069 
0.54481 0.75000 0.03124 
0.55196 0.75000 0.03179 
0.55950 0.75000 0.03234 
0.56743 0.75000 0.03287 
0.57578 0.75000 0.03340 
0.58454 0.75000 0.03392 
0.59372 0.75000 0.03442 
0.60333 0.75000 0.03490 
0.61337 0.75000 0.03536 
0.62383 0.75000 0.03580 
0.63472 0.75000 0.03622 
0.64602 0.75000 0.03660 
0.65773 0.75000 0.03694 
0.66984 0.75000 0.03723 
0.68232 0.75000 0.03748 
0.69516 0.75000 0.03767 
0.70833 0.75000 0.03779 
0.72180 0.75000 0.03784 
0.73556 0.75000 0.03782 
0.74955 0.75000 0.03770 
0.76376 0.75000 0.03750 
0.77813 0.75000 0.03720 
0.79263 0.75000 0.03681 
0.80722 0.75000 0.03632 
0.82185 0.75000 0.03574 
0.83648 0.75000 0.03507 
0.85106 0.75000 0.03432 
0.86556 0.75000 0.03350 
0.87994 0.75000 0.03261 
0.89414 0.75000 0.03167 
0.90814 0.75000 0.03069 
0.92189 0.75000 0.02967 
0.93537 0.75000 0.02864 
0.94854 0.75000 0.02759 
0.96138 0.75000 0.02653 
0.97386 0.75000 0.02548 
0.98596 0.75000 0.02443 
0.99767 0.75000 0.02340 
1.00898 0.75000 0.02239 
1.01986 0.75000 0.02139 
1.03033 0.75000 0.02041 
1.04037 0.75000 0.01946 
1.04998 0.75000 0.01853 
1.05916 0.75000 0.01762 
1.06792 0.75000 0.01674 
1.07626 0.75000 0.01588 
1.08420 0.75000 0.01505 
1.09174 0.75000 0.01424 
1.09888 0.75000 0.01347 
1.10565 0.75000 0.01272 
1.11206 0.75000 0.01200 
1.11812 0.75000 0.01131 
1.12384 0.75000 0.01065 
1.12923 0.75000 0.01002 
1.13432 0.75000 0.00942 
1.13911 0.75000 0.00884 
1.14362 0.75000 0.00830 
1.14786 0.75000 0.00778 
1.15185 0.75000 0.00730 
1.15560 0.75000 0.00684 
1.15912 0.75000 0.00640 
1.16243 0.75000 0.00599 
1.16553 0.75000 0.00561 
1.16844 0.75000 0.00525 
1.17118 0.75000 0.00491 
1.17374 0.75000 0.00459 
1.17615 0.75000 0.00430 
1.17841 0.75000 0.00402 
1.18052 0.75000 0.00376 
1.18251 0.75000 0.00352 
1.18437 0.75000 0.00329 
1.18611 0.75000 0.00308 
1.18775 0.75000 0.00287 
1.18928 0.75000 0.00269 
1.19072 0.75000 0.00251 
1.19207 0.75000 0.00234 
1.19334 0.75000 0.00219 
1.19452 0.75000 0.00204 
1.19564 0.75000 0.00190 
1.19668 0.75000 0.00177 
1.19766 0.75000 0.00165 
1.19858 0.75000 0.00154 
1.19944 0.75000 0.00143 
1.20025 0.75000 0.00133 
1.20101 0.75000 0.00123 
1.20173 0.75000 0.00114 
1.20240 0.75000 0.00106 
1.20303 0.75000 0.00098 
1.20361 0.75000 0.00090 
1.20417 0.75000 0.00083 
1.20469 0.75000 0.00077 
1.20517 0.75000 0.00071 
1.20563 0.75000 0.00065 
1.20606 0.75000 0.00059 
1.20646 0.75000 0.00054 
1.20683 0.75000 0.00050 
1.20719 0.75000 0.00045 
1.20751 0.75000 0.00041 
1.20782 0.75000 0.00037 
1.20811 0.75000 0.00033 
1.20838 0.75000 0.00030 
1.20862 0.75000 0.00027 
1.20886 0.75000 0.00024 
1.20907 0.75000 0.00021 
1.20927 0.75000 0.00018 
1.20945 0.75000 0.00016 
1.20962 0.75000 0.00014 
1.20978 0.75000 0.00012 
1.20992 0.75000 0.00010 
1.21005 0.75000 0.00008 
1.21016 0.75000 0.00007 
1.21027 0.75000 0.00006 
1.21036 0.75000 0.00004 
1.21044 0.75000 0.00003 
1.21051 0.75000 0.00002 
1.21057 0.75000 0.00002 
1.21062 0.75000 0.00001 
1.21065 0.75000 0.00001 
1.21068 0.75000 0.00000 
1.21069 0.75000 0.00000 
1.21070 0.75000 0.00000 

ZONE T="SLICE_Y_1p4_BINS01_KS_1mm_SINGLE_LAYER"
1.39331 1.40000 0.00000 
1.39330 1.40000 -0.00000 
1.39329 1.40000 -0.00000 
1.39327 1.40000 -0.00000 
1.39324 1.40000 -0.00001 
1.39321 1.40000 -0.00001 
1.39316 1.40000 -0.00002 
1.39311 1.40000 -0.00002 
1.39305 1.40000 -0.00003 
1.39298 1.40000 -0.00004 
1.39290 1.40000 -0.00005 
1.39282 1.40000 -0.00006 
1.39272 1.40000 -0.00008 
1.39261 1.40000 -0.00009 
1.39250 1.40000 -0.00010 
1.39237 1.40000 -0.00012 
1.39223 1.40000 -0.00014 
1.39208 1.40000 -0.00016 
1.39192 1.40000 -0.00018 
1.39174 1.40000 -0.00020 
1.39156 1.40000 -0.00022 
1.39136 1.40000 -0.00025 
1.39114 1.40000 -0.00028 
1.39091 1.40000 -0.00031 
1.39066 1.40000 -0.00034 
1.39040 1.40000 -0.00037 
1.39011 1.40000 -0.00041 
1.38981 1.40000 -0.00045 
1.38949 1.40000 -0.00049 
1.38915 1.40000 -0.00053 
1.38878 1.40000 -0.00058 
1.38839 1.40000 -0.00063 
1.38798 1.40000 -0.00068 
1.38753 1.40000 -0.00074 
1.38706 1.40000 -0.00080 
1.38656 1.40000 -0.00086 
1.38602 1.40000 -0.00093 
1.38545 1.40000 -0.00100 
1.38484 1.40000 -0.00107 
1.38419 1.40000 -0.00116 
1.38350 1.40000 -0.00124 
1.38276 1.40000 -0.00133 
1.38197 1.40000 -0.00143 
1.38114 1.40000 -0.00154 
1.38024 1.40000 -0.00165 
1.37929 1.40000 -0.00176 
1.37828 1.40000 -0.00189 
1.37719 1.40000 -0.00202 
1.37604 1.40000 -0.00216 
1.37481 1.40000 -0.00231 
1.37350 1.40000 -0.00247 
1.37210 1.40000 -0.00265 
1.37060 1.40000 -0.00283 
1.36901 1.40000 -0.00302 
1.36731 1.40000 -0.00323 
1.36550 1.40000 -0.00346 
1.36358 1.40000 -0.00369 
1.36152 1.40000 -0.00395 
1.35933 1.40000 -0.00422 
1.35699 1.40000 -0.00451 
1.35450 1.40000 -0.00482 
1.35185 1.40000 -0.00514 
1.34903 1.40000 -0.00549 
1.34603 1.40000 -0.00586 
1.34284 1.40000 -0.00624 
1.33945 1.40000 -0.00665 
1.33584 1.40000 -0.00708 
1.33202 1.40000 -0.00754 
1.32796 1.40000 -0.00801 
1.32366 1.40000 -0.00851 
1.31910 1.40000 -0.00903 
1.31428 1.40000 -0.00957 
1.30919 1.40000 -0.01013 
1.30381 1.40000 -0.01072 
1.29814 1.40000 -0.01132 
1.29217 1.40000 -0.01195 
1.28590 1.40000 -0.01259 
1.27930 1.40000 -0.01325 
1.27240 1.40000 -0.01394 
1.26517 1.40000 -0.01464 
1.25762 1.40000 -0.01536 
1.24975 1.40000 -0.01609 
1.24155 1.40000 -0.01684 
1.23305 1.40000 -0.01760 
1.22424 1.40000 -0.01838 
1.21514 1.40000 -0.01917 
1.20575 1.40000 -0.01996 
1.19609 1.40000 -0.02075 
1.18618 1.40000 -0.02154 
1.17604 1.40000 -0.02232 
1.16569 1.40000 -0.02309 
1.15517 1.40000 -0.02383 
1.14448 1.40000 -0.02453 
1.13367 1.40000 -0.02520 
1.12276 1.40000 -0.02582 
1.11179 1.40000 -0.02639 
1.10078 1.40000 -0.02689 
1.08978 1.40000 -0.02732 
1.07880 1.40000 -0.02769 
1.06789 1.40000 -0.02799 
1.05708 1.40000 -0.02821 
1.04640 1.40000 -0.02836 
1.03587 1.40000 -0.02845 
1.02552 1.40000 -0.02847 
1.01538 1.40000 -0.02843 
1.00547 1.40000 -0.02834 
0.99582 1.40000 -0.02819 
0.98643 1.40000 -0.02801 
0.97732 1.40000 -0.02779 
0.96851 1.40000 -0.02753 
0.96001 1.40000 -0.02724 
0.95182 1.40000 -0.02693 
0.94395 1.40000 -0.02660 
0.93639 1.40000 -0.02626 
0.92917 1.40000 -0.02589 
0.92226 1.40000 -0.02551 
0.91567 1.40000 -0.02513 
0.90939 1.40000 -0.02473 
0.90342 1.40000 -0.02433 
0.89775 1.40000 -0.02392 
0.89237 1.40000 -0.02350 
0.88728 1.40000 -0.02309 
0.88246 1.40000 -0.02267 
0.87914 1.39949 -0.02475 
0.87750 1.39831 -0.02951 
0.87154 1.39927 -0.03399 
0.86591 1.40009 -0.03553 
0.86159 1.40042 -0.03645 
0.85752 1.40074 -0.03659 
0.85409 1.40083 -0.03671 
0.85090 1.40092 -0.03660 
0.84806 1.40091 -0.03657 
0.84544 1.40088 -0.03652 
0.84302 1.40083 -0.03651 
0.84073 1.40080 -0.03645 
0.83853 1.40080 -0.03634 
0.83641 1.40083 -0.03618 
0.83437 1.40089 -0.03596 
0.83239 1.40099 -0.03568 
0.83046 1.40113 -0.03535 
0.82857 1.40130 -0.03495 
0.82670 1.40152 -0.03449 
0.82485 1.40178 -0.03394 
0.82303 1.40208 -0.03332 
0.82122 1.40241 -0.03260 
0.81945 1.40277 -0.03178 
0.81771 1.40314 -0.03087 
0.81602 1.40353 -0.02985 
0.81440 1.40391 -0.02872 
0.81287 1.40427 -0.02749 
0.81145 1.40461 -0.02617 
0.81016 1.40489 -0.02477 
0.80901 1.40513 -0.02330 
0.80801 1.40530 -0.02179 
0.80717 1.40541 -0.02026 
0.80648 1.40546 -0.01874 
0.80595 1.40543 -0.01724 
0.80557 1.40535 -0.01578 
0.80532 1.40520 -0.01438 
0.80519 1.40500 -0.01305 
0.80518 1.40476 -0.01181 
0.80526 1.40447 -0.01066 
0.80543 1.40415 -0.00962 
0.80567 1.40381 -0.00868 
0.80597 1.40345 -0.00784 
0.80630 1.40307 -0.00712 
0.80667 1.40269 -0.00650 
0.80706 1.40231 -0.00598 
0.80746 1.40194 -0.00556 
0.80785 1.40158 -0.00524 
0.80823 1.40123 -0.00501 
0.80859 1.40091 -0.00485 
0.80890 1.40062 -0.00479 
0.80919 1.40035 -0.00475 
0.80938 1.40015 -0.00482 
0.80948 1.40000 -0.00466 
0.80933 1.40000 -0.00436 
0.80919 1.40000 -0.00407 
0.80907 1.40000 -0.00379 
0.80895 1.40000 -0.00351 
0.80884 1.40000 -0.00323 
0.80875 1.40000 -0.00294 
0.80866 1.40000 -0.00267 
0.80858 1.40000 -0.00240 
0.80851 1.40000 -0.00214 
0.80845 1.40000 -0.00186 
0.80840 1.40000 -0.00156 
0.80836 1.40000 -0.00132 
0.80832 1.40000 -0.00110 
0.80829 1.40000 -0.00075 
0.80827 1.40000 -0.00036 
0.80826 1.40000 -0.00009 
0.80816 1.40006 -0.00011 
0.80797 1.40017 -0.00004 
0.80816 1.40006 0.00024 
0.80837 1.39995 -0.00020 
0.80807 1.40014 -0.00067 
0.80788 1.40027 -0.00105 
0.80752 1.40050 -0.00133 
0.80711 1.40077 -0.00155 
0.80669 1.40104 -0.00178 
0.80613 1.40140 -0.00189 
0.80564 1.40173 -0.00203 
0.80500 1.40215 -0.00204 
0.80439 1.40256 -0.00202 
0.80372 1.40300 -0.00190 
0.80306 1.40345 -0.00168 
0.80239 1.40391 -0.00141 
0.80169 1.40440 -0.00097 
0.80101 1.40488 -0.00054 
0.80031 1.40538 0.00009 
0.79964 1.40587 0.00073 
0.79898 1.40635 0.00153 
0.79835 1.40684 0.00242 
0.79777 1.40730 0.00342 
0.79723 1.40775 0.00452 
0.79675 1.40817 0.00574 
0.79633 1.40857 0.00706 
0.79600 1.40893 0.00848 
0.79576 1.40925 0.01000 
0.79562 1.40952 0.01162 
0.79560 1.40974 0.01333 
0.79570 1.40990 0.01512 
0.79594 1.40999 0.01698 
0.79633 1.41002 0.01889 
0.79688 1.40996 0.02086 
0.79761 1.40983 0.02284 
0.79851 1.40961 0.02485 
0.79962 1.40929 0.02681 
0.80093 1.40888 0.02879 
0.80246 1.40836 0.03062 
0.80423 1.40773 0.03246 
0.80622 1.40699 0.03402 
0.80847 1.40613 0.03556 
0.81089 1.40520 0.03666 
0.81360 1.40413 0.03768 
0.81640 1.40304 0.03814 
0.81947 1.40182 0.03840 
0.82252 1.40064 0.03800 
0.82579 1.39938 0.03719 
0.82896 1.39821 0.03561 
0.83207 1.39711 0.03329 
0.83496 1.39618 0.02985 
0.83683 1.39585 0.02519 
0.83713 1.39648 0.01789 
0.83430 1.39900 0.01611 
0.83425 1.40000 0.01677 
0.83606 1.40000 0.01707 
0.83799 1.40000 0.01737 
0.84004 1.40000 0.01769 
0.84224 1.40000 0.01802 
0.84457 1.40000 0.01836 
0.84706 1.40000 0.01871 
0.84971 1.40000 0.01908 
0.85253 1.40000 0.01945 
0.85553 1.40000 0.01983 
0.85872 1.40000 0.02022 
0.86212 1.40000 0.02061 
0.86572 1.40000 0.02102 
0.86954 1.40000 0.02142 
0.87360 1.40000 0.02184 
0.87790 1.40000 0.02225 
0.88246 1.40000 0.02267 
0.88728 1.40000 0.02309 
0.89237 1.40000 0.02350 
0.89775 1.40000 0.02392 
0.90342 1.40000 0.02433 
0.90939 1.40000 0.02473 
0.91567 1.40000 0.02513 
0.92226 1.40000 0.02551 
0.92917 1.40000 0.02589 
0.93639 1.40000 0.02626 
0.94395 1.40000 0.02660 
0.95182 1.40000 0.02693 
0.96001 1.40000 0.02724 
0.96851 1.40000 0.02753 
0.97732 1.40000 0.02779 
0.98643 1.40000 0.02801 
0.99582 1.40000 0.02819 
1.00547 1.40000 0.02834 
1.01538 1.40000 0.02843 
1.02552 1.40000 0.02847 
1.03587 1.40000 0.02845 
1.04640 1.40000 0.02836 
1.05708 1.40000 0.02821 
1.06789 1.40000 0.02799 
1.07880 1.40000 0.02769 
1.08978 1.40000 0.02732 
1.10078 1.40000 0.02689 
1.11179 1.40000 0.02639 
1.12276 1.40000 0.02582 
1.13367 1.40000 0.02520 
1.14448 1.40000 0.02453 
1.15517 1.40000 0.02383 
1.16569 1.40000 0.02309 
1.17604 1.40000 0.02232 
1.18618 1.40000 0.02154 
1.19609 1.40000 0.02075 
1.20575 1.40000 0.01996 
1.21514 1.40000 0.01917 
1.22424 1.40000 0.01838 
1.23305 1.40000 0.01760 
1.24155 1.40000 0.01684 
1.24975 1.40000 0.01609 
1.25762 1.40000 0.01536 
1.26517 1.40000 0.01464 
1.27240 1.40000 0.01394 
1.27930 1.40000 0.01325 
1.28590 1.40000 0.01259 
1.29217 1.40000 0.01195 
1.29814 1.40000 0.01132 
1.30381 1.40000 0.01072 
1.30919 1.40000 0.01013 
1.31428 1.40000 0.00957 
1.31910 1.40000 0.00903 
1.32366 1.40000 0.00851 
1.32796 1.40000 0.00801 
1.33202 1.40000 0.00754 
1.33584 1.40000 0.00708 
1.33945 1.40000 0.00665 
1.34284 1.40000 0.00624 
1.34603 1.40000 0.00586 
1.34903 1.40000 0.00549 
1.35185 1.40000 0.00514 
1.35450 1.40000 0.00482 
1.35699 1.40000 0.00451 
1.35933 1.40000 0.00422 
1.36152 1.40000 0.00395 
1.36358 1.40000 0.00369 
1.36550 1.40000 0.00346 
1.36731 1.40000 0.00323 
1.36901 1.40000 0.00302 
1.37060 1.40000 0.00283 
1.37210 1.40000 0.00265 
1.37350 1.40000 0.00247 
1.37481 1.40000 0.00231 
1.37604 1.40000 0.00216 
1.37719 1.40000 0.00202 
1.37828 1.40000 0.00189 
1.37929 1.40000 0.00176 