#++++++++++++++++++++++++++++++++++++++++++++++++++++++++++++++++++++++++++++++++++++++++++++++++++++++++++++++++++++
#
#   IPW-3 Ice Shape DATA SUBMITTAL FORM for Test Case NACA0012_AE3932, May 18th 2026
#
#       NOMENCLATURE:
#             X_ICED [m]:  X-coordinate of the iced surface
#             Y_ICED [m]:  Y-coordinate of the iced surface
#             Z_ICED [m]:  Z-coordinate of the iced surface
#
#                XXmm:  Roughness height used for the case, in mm.
#                       In the zone name, use the format KS_XXmm.
#                       For example, if k_s = 1.5 mm, use KS_1p5mm. 
#                       For Variable roughness, use KS_VAR
#
#    FLOW CONDITIONS:
#                                   AOA: 4.0 deg
#                           Mach Number: 0.3151 [-]
#       Mean aerodynamic chord (M.A.C.): 0.5334 [m]
#                       Reynolds Number: 3.9795 million (based on MAC)
#                       Freestream Temp: 267.55 [K]
#                        Reference area: 0.97548 [m2]
#               Moment Reference Center: 0.13335, 0, 0 [m] (X, Y, Z)
#
#    ICING CONDITIONS:
#                           Icing Time: 420 [s]
#                                  LWC: 0.55 [g/m3]
#                                  MVD: 20 [μm]
#
#              NOTES: 1. Please use at least 5 decimal places in the numerical values
#                     2. If data are NOT provided, please fill data fields with a numerical value of "-999" 
#
#++++++++++++++++++++++++++++++++++++++++++++++++++++++++++++++++++++++++++++++++++++++++++++++++++++++++++++++++++++

AUXDATA NUM_LAYERS  = "insert the number of total ice layers"
                                              
VARIABLES = "X_ICED" "Y_ICED" "Z_ICED"

ZONE T="SLICE_Y_0p9144_BINS01_KS_0p5334mm_SINGLE_LAYER"
5.323822498E-01 9.143999815E-01 -2.724484354E-02
5.322244763E-01 9.143999815E-01 -2.719719708E-02
5.320666432E-01 9.143999815E-01 -2.714955062E-02
5.317685008E-01 9.143999815E-01 -2.708634734E-02
5.314702988E-01 9.143999815E-01 -2.702314407E-02
5.309932828E-01 9.143999815E-01 -2.692212909E-02
5.305162072E-01 9.143999815E-01 -2.682111040E-02
5.297528505E-01 9.143999815E-01 -2.665982582E-02
5.289894342E-01 9.143999815E-01 -2.649853751E-02
5.277678967E-01 9.143999815E-01 -2.624134161E-02
5.265463591E-01 9.143999815E-01 -2.598414011E-02
5.248684883E-01 9.143999815E-01 -2.563230135E-02
5.231905580E-01 9.143999815E-01 -2.528045699E-02
5.213375092E-01 9.143999815E-01 -2.489381842E-02
5.194844007E-01 9.143999815E-01 -2.450717241E-02
5.176302195E-01 9.143999815E-01 -2.412253246E-02
5.157760382E-01 9.143999815E-01 -2.373788506E-02
5.139214993E-01 9.143999815E-01 -2.335532941E-02
5.120669007E-01 9.143999815E-01 -2.297276631E-02
5.102119446E-01 9.143999815E-01 -2.259227820E-02
5.083569288E-01 9.143999815E-01 -2.221178077E-02
5.065014958E-01 9.143999815E-01 -2.183331177E-02
5.046460629E-01 9.143999815E-01 -2.145483531E-02
5.027902126E-01 9.143999815E-01 -2.107835561E-02
5.009343624E-01 9.143999815E-01 -2.070186660E-02
4.990781546E-01 9.143999815E-01 -2.032737993E-02
4.972218871E-01 9.143999815E-01 -1.995288581E-02
4.953652918E-01 9.143999815E-01 -1.958037540E-02
4.935086370E-01 9.143999815E-01 -1.920785569E-02
4.916516244E-01 9.143999815E-01 -1.883729175E-02
4.897945523E-01 9.143999815E-01 -1.846671849E-02
4.879371822E-01 9.143999815E-01 -1.809806935E-02
4.860797524E-01 9.143999815E-01 -1.772941276E-02
4.842219949E-01 9.143999815E-01 -1.736265980E-02
4.823642075E-01 9.143999815E-01 -1.699589752E-02
4.805060923E-01 9.143999815E-01 -1.663102955E-02
4.786479175E-01 9.143999815E-01 -1.626615413E-02
4.767894149E-01 9.143999815E-01 -1.590315253E-02
4.749308825E-01 9.143999815E-01 -1.554014161E-02
4.730720520E-01 9.143999815E-01 -1.517898403E-02
4.712131619E-01 9.143999815E-01 -1.481781900E-02
4.693539441E-01 9.143999815E-01 -1.445848215E-02
4.674946666E-01 9.143999815E-01 -1.409913786E-02
4.656351209E-01 9.143999815E-01 -1.374161895E-02
4.637755156E-01 9.143999815E-01 -1.338409260E-02
4.619156122E-01 9.143999815E-01 -1.302838884E-02
4.600556493E-01 9.143999815E-01 -1.267267764E-02
4.581954181E-01 9.143999815E-01 -1.231876109E-02
4.563351274E-01 9.143999815E-01 -1.196483802E-02
4.544745386E-01 9.143999815E-01 -1.161269844E-02
4.526139200E-01 9.143999815E-01 -1.126055140E-02
4.507530034E-01 9.143999815E-01 -1.091018226E-02
4.488920569E-01 9.143999815E-01 -1.055980660E-02
4.470308125E-01 9.143999815E-01 -1.021118928E-02
4.451695085E-01 9.143999815E-01 -9.862565435E-03
4.433079362E-01 9.143999815E-01 -9.515699930E-03
4.414463043E-01 9.143999815E-01 -9.168827906E-03
4.395844042E-01 9.143999815E-01 -8.823719807E-03
4.377224445E-01 9.143999815E-01 -8.478604257E-03
4.358602464E-01 9.143999815E-01 -8.135224693E-03
4.339979887E-01 9.143999815E-01 -7.791838609E-03
4.321354628E-01 9.143999815E-01 -7.450188044E-03
4.302728772E-01 9.143999815E-01 -7.108530030E-03
4.284100235E-01 9.143999815E-01 -6.768630352E-03
4.265471101E-01 9.143999815E-01 -6.428723689E-03
4.246839285E-01 9.143999815E-01 -6.090552080E-03
4.228207171E-01 9.143999815E-01 -5.752373021E-03
4.209572375E-01 9.143999815E-01 -5.415910389E-03
4.190937281E-01 9.143999815E-01 -5.079441238E-03
4.172299504E-01 9.143999815E-01 -4.744700156E-03
4.153661132E-01 9.143999815E-01 -4.409952089E-03
4.135020077E-01 9.143999815E-01 -4.076950718E-03
4.116378427E-01 9.143999815E-01 -3.743942128E-03
4.097734392E-01 9.143999815E-01 -3.412685590E-03
4.079089761E-01 9.143999815E-01 -3.081422066E-03
4.060442448E-01 9.143999815E-01 -2.751901513E-03
4.041794837E-01 9.143999815E-01 -2.422374208E-03
4.023144543E-01 9.143999815E-01 -2.094589174E-03
4.004493654E-01 9.143999815E-01 -1.766797155E-03
3.985840380E-01 9.143999815E-01 -1.440755557E-03
3.967186511E-01 9.143999815E-01 -1.114707091E-03
3.948530257E-01 9.143999815E-01 -7.904174854E-04
3.929873407E-01 9.143999815E-01 -4.661211278E-04
3.911213875E-01 9.143999815E-01 -1.435921440E-04
3.892554045E-01 9.143999815E-01 1.789435482E-04
3.873891532E-01 9.143999815E-01 4.997014184E-04
3.855228424E-01 9.143999815E-01 8.204659098E-04
3.836562932E-01 9.143999815E-01 1.139439759E-03
3.817897141E-01 9.143999815E-01 1.458420185E-03
3.799228668E-01 9.143999815E-01 1.775597222E-03
3.780559599E-01 9.143999815E-01 2.092780778E-03
3.761887848E-01 9.143999815E-01 2.408148721E-03
3.743215799E-01 9.143999815E-01 2.723523416E-03
3.724541068E-01 9.143999815E-01 3.037067596E-03
3.705865741E-01 9.143999815E-01 3.350618295E-03
3.687188029E-01 9.143999815E-01 3.662321251E-03
3.668509722E-01 9.143999815E-01 3.974030726E-03
3.649828732E-01 9.143999815E-01 4.283876624E-03
3.631147146E-01 9.143999815E-01 4.593729042E-03
3.612463176E-01 9.143999815E-01 4.901707172E-03
3.593778908E-01 9.143999815E-01 5.209691823E-03
3.575091660E-01 9.143999815E-01 5.515777972E-03
3.556404114E-01 9.143999815E-01 5.821870640E-03
3.537713885E-01 9.143999815E-01 6.126027554E-03
3.519023061E-01 9.143999815E-01 6.430190988E-03
3.500329852E-01 9.143999815E-01 6.732392125E-03
3.481636047E-01 9.143999815E-01 7.034599315E-03
3.462939560E-01 9.143999815E-01 7.334823720E-03
3.444242477E-01 9.143999815E-01 7.635054179E-03
3.425542712E-01 9.143999815E-01 7.933283225E-03
3.406842351E-01 9.143999815E-01 8.231518790E-03
3.388139307E-01 9.143999815E-01 8.527730592E-03
3.369435668E-01 9.143999815E-01 8.823947981E-03
3.350729644E-01 9.143999815E-01 9.118104354E-03
3.332023025E-01 9.143999815E-01 9.412267245E-03
3.313313425E-01 9.143999815E-01 9.704332799E-03
3.294603527E-01 9.143999815E-01 9.996404871E-03
3.275890648E-01 9.143999815E-01 1.028635819E-02
3.257177472E-01 9.143999815E-01 1.057631802E-02
3.238461316E-01 9.143999815E-01 1.086412184E-02
3.219744563E-01 9.143999815E-01 1.115193218E-02
3.201025128E-01 9.143999815E-01 1.143753994E-02
3.182305098E-01 9.143999815E-01 1.172315329E-02
3.163582385E-01 9.143999815E-01 1.200653985E-02
3.144859076E-01 9.143999815E-01 1.228993293E-02
3.126132786E-01 9.143999815E-01 1.257106010E-02
3.107405901E-01 9.143999815E-01 1.285219379E-02
3.088676035E-01 9.143999815E-01 1.313100755E-02
3.069945872E-01 9.143999815E-01 1.340982690E-02
3.051212728E-01 9.143999815E-01 1.368629560E-02
3.032478988E-01 9.143999815E-01 1.396276988E-02
3.013742268E-01 9.143999815E-01 1.423685066E-02
2.995005250E-01 9.143999815E-01 1.451093704E-02
2.976264954E-01 9.143999815E-01 1.478257310E-02
2.957524061E-01 9.143999815E-01 1.505421475E-02
2.938780189E-01 9.143999815E-01 1.532336697E-02
2.920035720E-01 9.143999815E-01 1.559252385E-02
2.901288271E-01 9.143999815E-01 1.585913822E-02
2.882540524E-01 9.143999815E-01 1.612575725E-02
2.863789499E-01 9.143999815E-01 1.638978347E-02
2.845037878E-01 9.143999815E-01 1.665381342E-02
2.826282978E-01 9.143999815E-01 1.691520028E-02
2.807527781E-01 9.143999815E-01 1.717659086E-02
2.788769305E-01 9.143999815E-01 1.743527316E-02
2.770010233E-01 9.143999815E-01 1.769395918E-02
2.751247883E-01 9.143999815E-01 1.794988476E-02
2.732484937E-01 9.143999815E-01 1.820581406E-02
2.713718712E-01 9.143999815E-01 1.845892519E-02
2.694951892E-01 9.143999815E-01 1.871204004E-02
2.676181793E-01 9.143999815E-01 1.896226779E-02
2.657411397E-01 9.143999815E-01 1.921249926E-02
2.638637424E-01 9.143999815E-01 1.945978589E-02
2.619863153E-01 9.143999815E-01 1.970707625E-02
2.601085305E-01 9.143999815E-01 1.995134540E-02
2.582306862E-01 9.143999815E-01 2.019562013E-02
2.563524842E-01 9.143999815E-01 2.043680847E-02
2.544742525E-01 9.143999815E-01 2.067800239E-02
2.525956631E-01 9.143999815E-01 2.091604099E-02
2.507170141E-01 9.143999815E-01 2.115408331E-02
2.488380075E-01 9.143999815E-01 2.138888650E-02
2.469589710E-01 9.143999815E-01 2.162369341E-02
2.450795621E-01 9.143999815E-01 2.185519412E-02
2.432001084E-01 9.143999815E-01 2.208669856E-02
2.413202822E-01 9.143999815E-01 2.231481299E-02
2.394404113E-01 9.143999815E-01 2.254293114E-02
2.375601679E-01 9.143999815E-01 2.276757173E-02
2.356798947E-01 9.143999815E-01 2.299221605E-02
2.337992340E-01 9.143999815E-01 2.321330830E-02
2.319185436E-01 9.143999815E-01 2.343440615E-02
2.300374508E-01 9.143999815E-01 2.365184948E-02
2.281563282E-01 9.143999815E-01 2.386929840E-02
2.262748033E-01 9.143999815E-01 2.408300340E-02
2.243932486E-01 9.143999815E-01 2.429671213E-02
2.225112915E-01 9.143999815E-01 2.450659312E-02
2.206293046E-01 9.143999815E-01 2.471647784E-02
2.187469155E-01 9.143999815E-01 2.492241934E-02
2.168644965E-01 9.143999815E-01 2.512836456E-02
2.149816751E-01 9.143999815E-01 2.533027157E-02
2.130988240E-01 9.143999815E-01 2.553218231E-02
2.112155706E-01 9.143999815E-01 2.572995983E-02
2.093322724E-01 9.143999815E-01 2.592774108E-02
2.074485719E-01 9.143999815E-01 2.612126246E-02
2.055648416E-01 9.143999815E-01 2.631478757E-02
2.036806941E-01 9.143999815E-01 2.650393546E-02
2.017965168E-01 9.143999815E-01 2.669308707E-02
1.999119371E-01 9.143999815E-01 2.687775902E-02
1.980273128E-01 9.143999815E-01 2.706243470E-02
1.961422712E-01 9.143999815E-01 2.724251151E-02
1.942571998E-01 9.143999815E-01 2.742259204E-02
1.923717111E-01 9.143999815E-01 2.759792283E-02
1.904861927E-01 9.143999815E-01 2.777325734E-02
1.886002719E-01 9.143999815E-01 2.794370614E-02
1.867143214E-01 9.143999815E-01 2.811415866E-02
1.848279387E-01 9.143999815E-01 2.827960812E-02
1.829415262E-01 9.143999815E-01 2.844506130E-02
1.810547113E-01 9.143999815E-01 2.860537171E-02
1.791678667E-01 9.143999815E-01 2.876568399E-02
1.772806048E-01 9.143999815E-01 2.892069891E-02
1.753933132E-01 9.143999815E-01 2.907571755E-02
1.735056192E-01 9.143999815E-01 2.922527678E-02
1.716178805E-01 9.143999815E-01 2.937483788E-02
1.697297543E-01 9.143999815E-01 2.951876633E-02
1.678415835E-01 9.143999815E-01 2.966269664E-02
1.659530103E-01 9.143999815E-01 2.980082482E-02
1.640644073E-01 9.143999815E-01 2.993895486E-02
1.621754020E-01 9.143999815E-01 3.007110953E-02
1.602863669E-01 9.143999815E-01 3.020326793E-02
1.583969444E-01 9.143999815E-01 3.032926843E-02
1.565074921E-01 9.143999815E-01 3.045527264E-02
1.546176672E-01 9.143999815E-01 3.057493269E-02
1.527277976E-01 9.143999815E-01 3.069459647E-02
1.508375704E-01 9.143999815E-01 3.080770746E-02
1.489472985E-01 9.143999815E-01 3.092082217E-02
1.470566839E-01 9.143999815E-01 3.102716058E-02
1.451660395E-01 9.143999815E-01 3.113350272E-02
1.432750374E-01 9.143999815E-01 3.123283759E-02
1.413839906E-01 9.143999815E-01 3.133217618E-02
1.394926161E-01 9.143999815E-01 3.142426535E-02
1.376012117E-01 9.143999815E-01 3.151635826E-02
1.357094944E-01 9.143999815E-01 3.160095587E-02
1.338177323E-01 9.143999815E-01 3.168555349E-02
1.319401860E-01 9.143999815E-01 3.176190704E-02
1.300626099E-01 9.143999815E-01 3.183826432E-02
1.282356083E-01 9.143999815E-01 3.190506995E-02
1.264085621E-01 9.143999815E-01 3.197187930E-02
1.246602759E-01 9.143999815E-01 3.202858567E-02
1.229119524E-01 9.143999815E-01 3.208529577E-02
1.212467104E-01 9.143999815E-01 3.213248774E-02
1.195814312E-01 9.143999815E-01 3.217968345E-02
1.179953218E-01 9.143999815E-01 3.221822903E-02
1.164091825E-01 9.143999815E-01 3.225677460E-02
1.148984656E-01 9.143999815E-01 3.228748590E-02
1.133877188E-01 9.143999815E-01 3.231820092E-02
1.119488403E-01 9.143999815E-01 3.234184533E-02
1.105099246E-01 9.143999815E-01 3.236548975E-02
1.091394871E-01 9.143999815E-01 3.238273785E-02
1.077690274E-01 9.143999815E-01 3.239998966E-02
1.064637974E-01 9.143999815E-01 3.241150454E-02
1.051585376E-01 9.143999815E-01 3.242301941E-02
1.039154306E-01 9.143999815E-01 3.242940828E-02
1.026722938E-01 9.143999815E-01 3.243579715E-02
1.014883667E-01 9.143999815E-01 3.243761882E-02
1.003044099E-01 9.143999815E-01 3.243944049E-02
9.917686135E-02 9.143999815E-01 3.243719041E-02
9.804928303E-02 9.143999815E-01 3.243494034E-02
9.697543830E-02 9.143999815E-01 3.242906556E-02
9.590157866E-02 9.143999815E-01 3.242318705E-02
9.487888962E-02 9.143999815E-01 3.241412714E-02
9.385618567E-02 9.143999815E-01 3.240506351E-02
9.288223088E-02 9.143999815E-01 3.239322826E-02
9.190826118E-02 9.143999815E-01 3.238139302E-02
9.096148610E-02 9.143999815E-01 3.236673027E-02
9.001469612E-02 9.143999815E-01 3.235206753E-02
8.906313777E-02 9.143999815E-01 3.233413398E-02
8.811160177E-02 9.143999815E-01 3.231620044E-02
8.715192229E-02 9.143999815E-01 3.229485080E-02
8.619222790E-02 9.143999815E-01 3.227350116E-02
8.523263037E-02 9.143999815E-01 3.224878013E-02
8.427301049E-02 9.143999815E-01 3.222405538E-02
8.331350982E-02 9.143999815E-01 3.219588473E-02
8.235399425E-02 9.143999815E-01 3.216771036E-02
8.139459789E-02 9.143999815E-01 3.213597462E-02
8.043518662E-02 9.143999815E-01 3.210423887E-02
7.947592437E-02 9.143999815E-01 3.206882253E-02
7.851664722E-02 9.143999815E-01 3.203340620E-02
7.755753398E-02 9.143999815E-01 3.199421242E-02
7.659840584E-02 9.143999815E-01 3.195501864E-02
7.563945651E-02 9.143999815E-01 3.191193566E-02
7.468049228E-02 9.143999815E-01 3.186885640E-02
7.372172922E-02 9.143999815E-01 3.182178363E-02
7.276295871E-02 9.143999815E-01 3.177470714E-02
7.180441171E-02 9.143999815E-01 3.172351420E-02
7.084584236E-02 9.143999815E-01 3.167231753E-02
6.988752633E-02 9.143999815E-01 3.161685914E-02
6.892920285E-02 9.143999815E-01 3.156139702E-02
6.797115505E-02 9.143999815E-01 3.150152415E-02
6.701309979E-02 9.143999815E-01 3.144165128E-02
6.605535001E-02 9.143999815E-01 3.137722611E-02
6.509758532E-02 9.143999815E-01 3.131279722E-02
6.414016336E-02 9.143999815E-01 3.124367073E-02
6.318272650E-02 9.143999815E-01 3.117454425E-02
6.222566962E-02 9.143999815E-01 3.110054880E-02
6.126859412E-02 9.143999815E-01 3.102655336E-02
6.031194329E-02 9.143999815E-01 3.094748966E-02
5.935527384E-02 9.143999815E-01 3.086842410E-02
5.839907750E-02 9.143999815E-01 3.078408912E-02
5.744285882E-02 9.143999815E-01 3.069975227E-02
5.648715794E-02 9.143999815E-01 3.060993738E-02
5.553144217E-02 9.143999815E-01 3.052011877E-02
5.457629636E-02 9.143999815E-01 3.042461351E-02
5.362113193E-02 9.143999815E-01 3.032910638E-02
5.266659334E-02 9.143999815E-01 3.022768162E-02
5.171203986E-02 9.143999815E-01 3.012625501E-02
5.075818673E-02 9.143999815E-01 3.001863137E-02
4.980431125E-02 9.143999815E-01 2.991100773E-02
4.885121062E-02 9.143999815E-01 2.979688346E-02
4.789809510E-02 9.143999815E-01 2.968275547E-02
4.694584012E-02 9.143999815E-01 2.956180833E-02
4.599356651E-02 9.143999815E-01 2.944085747E-02
4.504225031E-02 9.143999815E-01 2.931275591E-02
4.409091547E-02 9.143999815E-01 2.918465436E-02
4.314063862E-02 9.143999815E-01 2.904905751E-02
4.219033942E-02 9.143999815E-01 2.891346067E-02
4.124122858E-02 9.143999815E-01 2.876994386E-02
4.029209912E-02 9.143999815E-01 2.862642705E-02
3.934429958E-02 9.143999815E-01 2.847449668E-02
3.839648142E-02 9.143999815E-01 2.832256258E-02
3.745016083E-02 9.143999815E-01 2.816171199E-02
3.650381789E-02 9.143999815E-01 2.800085768E-02
3.555915132E-02 9.143999815E-01 2.783056535E-02
3.461446613E-02 9.143999815E-01 2.766027115E-02
3.367167339E-02 9.143999815E-01 2.747992426E-02
3.272886202E-02 9.143999815E-01 2.729957178E-02
3.178820759E-02 9.143999815E-01 2.710840106E-02
3.084753267E-02 9.143999815E-01 2.691722661E-02
2.990932763E-02 9.143999815E-01 2.671440318E-02
2.897110395E-02 9.143999815E-01 2.651157603E-02
2.803569473E-02 9.143999815E-01 2.629624680E-02
2.710026689E-02 9.143999815E-01 2.608091570E-02
2.616808563E-02 9.143999815E-01 2.585206367E-02
2.523588389E-02 9.143999815E-01 2.562320791E-02
2.430747822E-02 9.143999815E-01 2.537953481E-02
2.337905392E-02 9.143999815E-01 2.513585798E-02
2.245508321E-02 9.143999815E-01 2.487592585E-02
2.153109573E-02 9.143999815E-01 2.461598814E-02
2.061234415E-02 9.143999815E-01 2.433823235E-02
1.969357394E-02 9.143999815E-01 2.406047098E-02
1.878106967E-02 9.143999815E-01 2.376292460E-02
1.786854677E-02 9.143999815E-01 2.346537076E-02
1.696364023E-02 9.143999815E-01 2.314556763E-02
1.605871506E-02 9.143999815E-01 2.282575890E-02
1.516309939E-02 9.143999815E-01 2.248092368E-02
1.426746510E-02 9.143999815E-01 2.213608474E-02
1.338341553E-02 9.143999815E-01 2.176278830E-02
1.249934919E-02 9.143999815E-01 2.138948441E-02
1.163005363E-02 9.143999815E-01 2.098328061E-02
1.076074038E-02 9.143999815E-01 2.057706751E-02
9.836023673E-03 9.143999815E-01 2.026583999E-02
8.911288343E-03 9.143999815E-01 1.995460689E-02
7.828922011E-03 9.143999815E-01 1.990414597E-02
6.746524014E-03 9.143999815E-01 1.985369809E-02
5.530922208E-03 9.144000411E-01 1.998694427E-02
4.315299913E-03 9.144000411E-01 2.012018487E-02
3.047485370E-03 9.143999815E-01 2.025603317E-02
1.779656392E-03 9.143999815E-01 2.039186656E-02
4.822017800E-04 9.143999815E-01 2.044158429E-02
-8.152921218E-04 9.143999815E-01 2.049131319E-02
-2.142298734E-03 9.144000411E-01 2.041142620E-02
-3.469346557E-03 9.144000411E-01 2.033154853E-02
-4.811752122E-03 9.143999815E-01 2.007967047E-02
-6.154211704E-03 9.143999815E-01 1.982780546E-02
-7.487873547E-03 9.143999815E-01 1.936753839E-02
-8.821637370E-03 9.143999815E-01 1.890729554E-02
-1.135118585E-02 9.144000411E-01 1.866778359E-02
-1.389325596E-02 9.144000411E-01 1.843287423E-02
-1.714522019E-02 9.143999815E-01 1.800050214E-02
-2.038807422E-02 9.143999815E-01 1.756582968E-02
-2.123276517E-02 9.143999815E-01 1.606998593E-02
-2.206063643E-02 9.143999815E-01 1.456892397E-02
-2.106127702E-02 9.143999815E-01 1.267592143E-02
-2.006642334E-02 9.143999815E-01 1.078508142E-02
-1.928687096E-02 9.143999815E-01 9.136259556E-03
-1.850813627E-02 9.143999815E-01 7.488329895E-03
-1.760299876E-02 9.143999815E-01 6.062916946E-03
-1.670411974E-02 9.143999815E-01 4.637151025E-03
-1.535886433E-02 9.143999815E-01 3.492993768E-03
-1.402096916E-02 9.143999815E-01 2.347133588E-03
-1.235753298E-02 9.143999815E-01 1.575153670E-03
-1.069432124E-02 9.143999815E-01 8.026316646E-04
-9.032224305E-03 9.144000411E-01 3.208334092E-04
-7.366945501E-03 9.144000411E-01 -1.600922405E-04
-6.278007757E-03 9.143999815E-01 -7.474223967E-04
-5.187650677E-03 9.143999815E-01 -1.334266854E-03
-4.682654981E-03 9.143999815E-01 -2.246062970E-03
-4.177233670E-03 9.143999815E-01 -3.157716477E-03
-3.772233147E-03 9.143999815E-01 -4.220806528E-03
-3.366406076E-03 9.143999815E-01 -5.283266306E-03
-2.835347783E-03 9.143999815E-01 -6.355989724E-03
-2.303509042E-03 9.143999815E-01 -7.427965757E-03
-1.607905608E-03 9.144000411E-01 -8.460997604E-03
-9.121487965E-04 9.144000411E-01 -9.493805468E-03
-5.714861982E-05 9.144000411E-01 -1.042629685E-02
7.977907080E-04 9.144000411E-01 -1.135879010E-02
1.746573718E-03 9.144000411E-01 -1.215643343E-02
2.695188159E-03 9.144000411E-01 -1.295427419E-02
3.672418883E-03 9.143999815E-01 -1.365243085E-02
4.649363924E-03 9.143999815E-01 -1.435101684E-02
5.627245642E-03 9.143999815E-01 -1.498585567E-02
6.604989525E-03 9.143999815E-01 -1.562094223E-02
7.601444144E-03 9.143999815E-01 -1.616867073E-02
8.597957902E-03 9.143999815E-01 -1.671632193E-02
9.895195253E-03 9.144000411E-01 -1.660331897E-02
1.119188871E-02 9.144000411E-01 -1.649147831E-02
1.274198201E-02 9.144000411E-01 -1.574881747E-02
1.429209393E-02 9.143999815E-01 -1.500615012E-02
1.556904055E-02 9.143999815E-01 -1.471975166E-02
1.684668474E-02 9.143999815E-01 -1.443193480E-02
1.787563041E-02 9.143999815E-01 -1.462068222E-02
1.890464500E-02 9.143999815E-01 -1.480930764E-02
1.992149279E-02 9.144000411E-01 -1.499383803E-02
2.093829401E-02 9.144000411E-01 -1.517851464E-02
2.194474824E-02 9.143999815E-01 -1.535958983E-02
2.295111120E-02 9.143999815E-01 -1.554093603E-02
2.394924499E-02 9.143999815E-01 -1.571942121E-02
2.494730055E-02 9.143999815E-01 -1.589816995E-02
2.593935467E-02 9.143999815E-01 -1.607296616E-02
2.693135478E-02 9.143999815E-01 -1.624798030E-02
2.791823260E-02 9.143999815E-01 -1.641903631E-02
2.890508249E-02 9.143999815E-01 -1.659023389E-02
2.988682128E-02 9.143999815E-01 -1.675965078E-02
3.086857498E-02 9.143999815E-01 -1.692909375E-02
3.184655681E-02 9.144000411E-01 -1.709565334E-02
3.282457963E-02 9.143999815E-01 -1.726215146E-02
3.380045295E-02 9.143999815E-01 -1.742297597E-02
3.477637470E-02 9.144000411E-01 -1.758373156E-02
3.575022519E-02 9.144000411E-01 -1.773968711E-02
3.672410920E-02 9.144000411E-01 -1.789561100E-02
3.769522160E-02 9.143999815E-01 -1.805016398E-02
3.866635635E-02 9.143999815E-01 -1.820470765E-02
3.963478282E-02 9.143999815E-01 -1.835901104E-02
4.060323164E-02 9.143999815E-01 -1.851330325E-02
4.156980291E-02 9.143999815E-01 -1.866595075E-02
4.253640026E-02 9.143999815E-01 -1.881858334E-02
4.350164905E-02 9.143999815E-01 -1.896862127E-02
4.446692392E-02 9.143999815E-01 -1.911864802E-02
4.543089494E-02 9.143999815E-01 -1.926652528E-02
4.639488831E-02 9.143999815E-01 -1.941438764E-02
4.735760018E-02 9.143999815E-01 -1.956079714E-02
4.832033440E-02 9.143999815E-01 -1.970718801E-02
4.928182438E-02 9.143999815E-01 -1.985265501E-02
5.024334043E-02 9.143999815E-01 -1.999810524E-02
5.120377615E-02 9.143999815E-01 -2.014268376E-02
5.216423795E-02 9.143999815E-01 -2.028725296E-02
5.312391743E-02 9.143999815E-01 -2.043030597E-02
5.408361927E-02 9.143999815E-01 -2.057334781E-02
5.504284054E-02 9.143999815E-01 -2.071397938E-02
5.600208417E-02 9.143999815E-01 -2.085460722E-02
5.696108192E-02 9.143999815E-01 -2.099213190E-02
5.792010203E-02 9.143999815E-01 -2.112966031E-02
5.887893215E-02 9.144000411E-01 -2.126410045E-02
5.983778089E-02 9.144000411E-01 -2.139854431E-02
6.079614908E-02 9.144000411E-01 -2.153158374E-02
6.175453216E-02 9.143999815E-01 -2.166461945E-02
6.270647794E-02 9.143999815E-01 -2.182577737E-02
6.365845352E-02 9.143999815E-01 -2.198689990E-02
6.460421532E-02 9.143999815E-01 -2.217675932E-02
6.554999948E-02 9.143999815E-01 -2.236659452E-02
6.649605185E-02 9.143999815E-01 -2.255491912E-02
6.744211912E-02 9.143999815E-01 -2.274324931E-02
6.838899851E-02 9.143999815E-01 -2.292737365E-02
6.933588535E-02 9.143999815E-01 -2.311150357E-02
7.028353959E-02 9.143999815E-01 -2.329156548E-02
7.123121619E-02 9.143999815E-01 -2.347163111E-02
7.217961550E-02 9.143999815E-01 -2.364774607E-02
7.312802970E-02 9.143999815E-01 -2.382386476E-02
7.407713681E-02 9.143999815E-01 -2.399614267E-02
7.502625883E-02 9.143999815E-01 -2.416842431E-02
7.597603649E-02 9.143999815E-01 -2.433697507E-02
7.692582160E-02 9.143999815E-01 -2.450552955E-02
7.787623256E-02 9.143999815E-01 -2.467045188E-02
7.882665843E-02 9.143999815E-01 -2.483537793E-02
7.977767289E-02 9.143999815E-01 -2.499677241E-02
8.072870970E-02 9.143999815E-01 -2.515817061E-02
8.168030530E-02 9.143999815E-01 -2.531613596E-02
8.263191581E-02 9.143999815E-01 -2.547410503E-02
8.358405530E-02 9.143999815E-01 -2.562872693E-02
8.453620970E-02 9.143999815E-01 -2.578335255E-02
8.548901975E-02 9.143999815E-01 -2.593472786E-02
8.644184470E-02 9.143999815E-01 -2.608610690E-02
8.740738034E-02 9.143999815E-01 -2.623612992E-02
8.837290108E-02 9.143999815E-01 -2.638614923E-02
8.937546611E-02 9.143999815E-01 -2.653844282E-02
9.037801623E-02 9.143999815E-01 -2.669073269E-02
9.143125266E-02 9.143999815E-01 -2.684706822E-02
9.248446673E-02 9.143999815E-01 -2.700340003E-02
9.359093010E-02 9.143999815E-01 -2.716368251E-02
9.469737113E-02 9.143999815E-01 -2.732396126E-02
9.585975111E-02 9.143999815E-01 -2.748809382E-02
9.702210873E-02 9.143999815E-01 -2.765222266E-02
9.824322164E-02 9.143999815E-01 -2.782012522E-02
9.946431220E-02 9.143999815E-01 -2.798802406E-02
1.007471383E-01 9.143999815E-01 -2.815956064E-02
1.020299345E-01 9.143999815E-01 -2.833109349E-02
1.033775732E-01 9.143999815E-01 -2.850608155E-02
1.047251821E-01 9.143999815E-01 -2.868106589E-02
1.061408967E-01 9.143999815E-01 -2.885933593E-02
1.075565815E-01 9.143999815E-01 -2.903760225E-02
1.090437993E-01 9.143999815E-01 -2.921895497E-02
1.105309874E-01 9.143999815E-01 -2.940030396E-02
1.120933294E-01 9.143999815E-01 -2.958446555E-02
1.136556342E-01 9.143999815E-01 -2.976862341E-02
1.152968630E-01 9.143999815E-01 -2.995531820E-02
1.169380546E-01 9.143999815E-01 -3.014200926E-02
1.186621338E-01 9.143999815E-01 -3.033093177E-02
1.203861833E-01 9.143999815E-01 -3.051985055E-02
1.221904829E-01 9.143999815E-01 -3.070997261E-02
1.239947379E-01 9.143999815E-01 -3.090009093E-02
1.258530319E-01 9.143999815E-01 -3.108814731E-02
1.277112961E-01 9.143999815E-01 -3.127619997E-02
1.295861900E-01 9.143999815E-01 -3.145819530E-02
1.314610541E-01 9.143999815E-01 -3.164018691E-02
1.333366632E-01 9.143999815E-01 -3.181466460E-02
1.352122426E-01 9.143999815E-01 -3.198913857E-02
1.370885074E-01 9.143999815E-01 -3.215636313E-02
1.389647424E-01 9.143999815E-01 -3.232358396E-02
1.408416331E-01 9.143999815E-01 -3.248379752E-02
1.427184790E-01 9.143999815E-01 -3.264401108E-02
1.445959359E-01 9.143999815E-01 -3.279743716E-02
1.464733481E-01 9.143999815E-01 -3.295085952E-02
1.483513266E-01 9.143999815E-01 -3.309770674E-02
1.502292603E-01 9.143999815E-01 -3.324455023E-02
1.521077305E-01 9.143999815E-01 -3.338503093E-02
1.539861560E-01 9.143999815E-01 -3.352550790E-02
1.558650732E-01 9.143999815E-01 -3.365981206E-02
1.577439457E-01 9.143999815E-01 -3.379411250E-02
1.596232802E-01 9.143999815E-01 -3.392242268E-02
1.615025848E-01 9.143999815E-01 -3.405072913E-02
1.633823216E-01 9.143999815E-01 -3.417320922E-02
1.652620137E-01 9.143999815E-01 -3.429568559E-02
1.671420932E-01 9.143999815E-01 -3.441250324E-02
1.690221429E-01 9.143999815E-01 -3.452932090E-02
1.709025651E-01 9.143999815E-01 -3.464064747E-02
1.727829576E-01 9.143999815E-01 -3.475197032E-02
1.746636778E-01 9.143999815E-01 -3.485796973E-02
1.765443683E-01 9.143999815E-01 -3.496396542E-02
1.784253716E-01 9.143999815E-01 -3.506479040E-02
1.803063452E-01 9.143999815E-01 -3.516561538E-02
1.821876168E-01 9.143999815E-01 -3.526140749E-02
1.840688586E-01 9.143999815E-01 -3.535719961E-02
1.859503835E-01 9.143999815E-01 -3.544807807E-02
1.878318787E-01 9.143999815E-01 -3.553895652E-02
1.897136122E-01 9.143999815E-01 -3.562505543E-02
1.915953159E-01 9.143999815E-01 -3.571115434E-02
1.934772581E-01 9.143999815E-01 -3.579261899E-02
1.953591704E-01 9.143999815E-01 -3.587408364E-02
1.972413212E-01 9.143999815E-01 -3.595103696E-02
1.991234273E-01 9.143999815E-01 -3.602798656E-02
2.010057420E-01 9.143999815E-01 -3.610052541E-02
2.028880119E-01 9.143999815E-01 -3.617306426E-02
2.047704905E-01 9.143999815E-01 -3.624131903E-02
2.066529393E-01 9.143999815E-01 -3.630957007E-02
2.085355520E-01 9.143999815E-01 -3.637365624E-02
2.104181349E-01 9.143999815E-01 -3.643773869E-02
2.123008966E-01 9.143999815E-01 -3.649774566E-02
2.141836286E-01 9.143999815E-01 -3.655774891E-02
2.160665095E-01 9.143999815E-01 -3.661378473E-02
2.179493606E-01 9.143999815E-01 -3.666982055E-02
2.198323458E-01 9.143999815E-01 -3.672199324E-02
2.217153013E-01 9.143999815E-01 -3.677416593E-02
2.235983908E-01 9.143999815E-01 -3.682255745E-02
2.254814506E-01 9.143999815E-01 -3.687094525E-02
2.273646295E-01 9.143999815E-01 -3.691565618E-02
2.292477787E-01 9.143999815E-01 -3.696036711E-02
2.311310470E-01 9.143999815E-01 -3.700149432E-02
2.330142856E-01 9.143999815E-01 -3.704261780E-02
2.348976135E-01 9.143999815E-01 -3.708022460E-02
2.367809117E-01 9.143999815E-01 -3.711782768E-02
2.386643142E-01 9.143999815E-01 -3.715201095E-02
2.405476868E-01 9.143999815E-01 -3.718619421E-02
2.424311489E-01 9.143999815E-01 -3.721703961E-02
2.443145812E-01 9.143999815E-01 -3.724788129E-02
2.461980879E-01 9.143999815E-01 -3.727545962E-02
2.480815649E-01 9.143999815E-01 -3.730303422E-02
2.499651164E-01 9.143999815E-01 -3.732742369E-02
2.518486381E-01 9.143999815E-01 -3.735180944E-02
2.537322342E-01 9.143999815E-01 -3.737307340E-02
2.556158006E-01 9.143999815E-01 -3.739433736E-02
2.574994266E-01 9.143999815E-01 -3.741255030E-02
2.593830228E-01 9.143999815E-01 -3.743076324E-02
2.612666786E-01 9.143999815E-01 -3.744599968E-02
2.631502748E-01 9.143999815E-01 -3.746123612E-02
2.650339603E-01 9.143999815E-01 -3.747355565E-02
2.669175863E-01 9.143999815E-01 -3.748587519E-02
2.688012719E-01 9.143999815E-01 -3.749534488E-02
2.706849277E-01 9.143999815E-01 -3.750481457E-02
2.725686431E-01 9.143999815E-01 -3.751148283E-02
2.744523287E-01 9.143999815E-01 -3.751815110E-02
2.763360441E-01 9.143999815E-01 -3.752208874E-02
2.782196999E-01 9.143999815E-01 -3.752602637E-02
2.801034153E-01 9.143999815E-01 -3.752728924E-02