#+++++++++++++++++++++++++++++++++++++++++++++++++++++++++++++++++++++++++++++++++++++++++++++++++++++++++++++++++++++++++++++++++
#
#   IPW-3 Cut/Slice DATA SUBMITTAL FORM for Test Case NACA0012_AE3932, May 18th 2026
#
#       NOMENCLATURE:
#                  X [m]:  X-coordinate of the surface (clean for reference)
#                  Y [m]:  Y-coordinate of the surface (clean for reference)
#                  Z [m]:  Z-coordinate of the surface (clean for reference)
#                 Cp [-]:  Pressure coefficient
#            HTC [W/m2K]:  Convective Heat Transfer Coefficient (on the rough surface)
#               Beta [-]:  Collection efficiency
#                 Ts [K]:  Surface temperature
#                 FF [-]:  Freezing fraction
#                  k [m]:  Surface roughness height if variable (OPTIONAL)
#         RhoIce [kg/m3]:  Ice density (OPTIONAL)
#      HTC_CLEAN [W/m2K]:  Convective Heat Transfer Coefficient on the surface without roughness (OPTIONAL)
#
#                XXmm:  Roughness height used for the case, in mm.
#                       In the zone name, use the format KS_XXmm.
#                       For example, if k_s = 1.5 mm, use KS_1p5mm. 
#                       For Variable roughness, use KS_VAR
#
#    FLOW CONDITIONS:
#                                   AOA: 4.0 deg
#                           Mach Number: 0.3151 [-]
#       Mean aerodynamic chord (M.A.C.): 0.5334 [m]
#                       Reynolds Number: 3.9795 million (based on MAC)
#                       Freestream Temp: 267.55 [K]
#                        Reference area: 0.97548 [m2]
#               Moment Reference Center: 0.13335, 0, 0 [m] (X, Y, Z)
#
#    ICING CONDITIONS:
#                           Icing Time: 420 [s]
#                                  LWC: 0.55 [g/m3]
#                                  MVD: 20 [μm]
#
#              NOTES: 1. Please use at least 5 decimal places in the numerical values
#                     2. If data are NOT provided, please fill data fields with a numerical value of "-999" 
#
#++++++++++++++++++++++++++++++++++++++++++++++++++++++++++++++++++++++++++++++++++++++++++++++++++++++++++++++++++++

                                                    <- Optional ->                 
VARIABLES = "X" "Y" "Z" "Cp" "HTC" "Beta" "Ts" "FF" "k" "RhoIce" "HTC_CLEAN"

ZONE T="SLICE_Y_0p9144_BINS01_KS_0p5334mm_CUTDATA"
5.324723721E-01 9.143999815E-01 -2.723562904E-02 7.503726333E-02 2.044020691E+02 0.000000000E+00 2.669749146E+02 -1.000000000E+00 -9.990000000E+02 0.000000000E+00 -9.990000000E+02
5.317667127E-01 9.143999815E-01 -2.708593197E-02 9.191571921E-02 2.253087921E+02 0.000000000E+00 2.669847412E+02 -1.000000000E+00 -9.990000000E+02 0.000000000E+00 -9.990000000E+02
5.317667127E-01 9.143999815E-01 -2.708593197E-02 9.191571921E-02 2.253088531E+02 0.000000000E+00 2.669847412E+02 -1.000000000E+00 -9.990000000E+02 0.000000000E+00 -9.990000000E+02
5.306376219E-01 9.143999815E-01 -2.684669010E-02 8.889919519E-02 2.291634369E+02 0.000000000E+00 2.669829712E+02 -1.000000000E+00 -9.990000000E+02 0.000000000E+00 -9.990000000E+02
5.306376219E-01 9.143999815E-01 -2.684669010E-02 8.889919519E-02 2.291634521E+02 0.000000000E+00 2.669829712E+02 -1.000000000E+00 -9.990000000E+02 0.000000000E+00 -9.990000000E+02
5.288308859E-01 9.143999815E-01 -2.646473981E-02 8.545157313E-02 2.288538513E+02 0.000000000E+00 2.669809570E+02 -1.000000000E+00 -9.990000000E+02 0.000000000E+00 -9.990000000E+02
5.288308859E-01 9.143999815E-01 -2.646473795E-02 8.545157313E-02 2.288538513E+02 0.000000000E+00 2.669809570E+02 -1.000000000E+00 -9.990000000E+02 0.000000000E+00 -9.990000000E+02
5.259396434E-01 9.143999815E-01 -2.585575171E-02 8.006150275E-02 2.294983673E+02 0.000000000E+00 2.669778442E+02 -1.000000000E+00 -9.990000000E+02 0.000000000E+00 -9.990000000E+02
5.259396434E-01 9.143999815E-01 -2.585574985E-02 8.006150275E-02 2.294983673E+02 0.000000000E+00 2.669778442E+02 -1.000000000E+00 -9.990000000E+02 0.000000000E+00 -9.990000000E+02
5.213124752E-01 9.143999815E-01 -2.488694340E-02 7.152189314E-02 2.347399445E+02 0.000000000E+00 2.669728699E+02 -1.000000000E+00 -9.990000000E+02 0.000000000E+00 -9.990000000E+02
5.213124752E-01 9.143999815E-01 -2.488694154E-02 7.152189314E-02 2.347399597E+02 0.000000000E+00 2.669728699E+02 -1.000000000E+00 -9.990000000E+02 0.000000000E+00 -9.990000000E+02
5.139061213E-01 9.143999815E-01 -2.335049585E-02 5.989431590E-02 2.431529388E+02 0.000000000E+00 2.669660950E+02 -1.000000000E+00 -9.990000000E+02 0.000000000E+00 -9.990000000E+02
5.139061213E-01 9.143999815E-01 -2.335049212E-02 5.989431590E-02 2.431529541E+02 0.000000000E+00 2.669660950E+02 -1.000000000E+00 -9.990000000E+02 0.000000000E+00 -9.990000000E+02
5.057663321E-01 9.143999815E-01 -2.168183029E-02 4.605454952E-02 2.526217804E+02 0.000000000E+00 2.669580383E+02 -1.000000000E+00 -9.990000000E+02 0.000000000E+00 -9.990000000E+02
5.057663321E-01 9.143999815E-01 -2.168182656E-02 4.605454952E-02 2.526218109E+02 0.000000000E+00 2.669580383E+02 -1.000000000E+00 -9.990000000E+02 0.000000000E+00 -9.990000000E+02
4.976225793E-01 9.143999815E-01 -2.003249340E-02 3.120476007E-02 2.614640808E+02 0.000000000E+00 2.669494019E+02 -1.000000000E+00 -9.990000000E+02 0.000000000E+00 -9.990000000E+02
4.976225495E-01 9.143999815E-01 -2.003248967E-02 3.120476007E-02 2.614641113E+02 0.000000000E+00 2.669494019E+02 -1.000000000E+00 -9.990000000E+02 0.000000000E+00 -9.990000000E+02
4.894750118E-01 9.143999815E-01 -1.840214431E-02 1.619484462E-02 2.688330383E+02 0.000000000E+00 2.669406128E+02 -1.000000000E+00 -9.990000000E+02 0.000000000E+00 -9.990000000E+02
4.894749820E-01 9.143999815E-01 -1.840214059E-02 1.619484462E-02 2.688330688E+02 0.000000000E+00 2.669406128E+02 -1.000000000E+00 -9.990000000E+02 0.000000000E+00 -9.990000000E+02
4.813237786E-01 9.143999815E-01 -1.679023728E-02 1.314260648E-03 2.750503235E+02 0.000000000E+00 2.669319458E+02 -1.000000000E+00 -9.990000000E+02 0.000000000E+00 -9.990000000E+02
4.813237488E-01 9.143999815E-01 -1.679023355E-02 1.314260648E-03 2.750503540E+02 0.000000000E+00 2.669319458E+02 -1.000000000E+00 -9.990000000E+02 0.000000000E+00 -9.990000000E+02
4.731689990E-01 9.143999815E-01 -1.519634575E-02 -1.326454803E-02 2.804084473E+02 0.000000000E+00 2.669234009E+02 -1.000000000E+00 -9.990000000E+02 0.000000000E+00 -9.990000000E+02
4.731689692E-01 9.143999815E-01 -1.519634202E-02 -1.326454803E-02 2.804084473E+02 0.000000000E+00 2.669234009E+02 -1.000000000E+00 -9.990000000E+02 0.000000000E+00 -9.990000000E+02
4.650107622E-01 9.143999815E-01 -1.362020802E-02 -2.764751017E-02 2.849466248E+02 0.000000000E+00 2.669150085E+02 -1.000000000E+00 -9.990000000E+02 0.000000000E+00 -9.990000000E+02
4.650107324E-01 9.143999815E-01 -1.362020429E-02 -2.764751017E-02 2.849466248E+02 0.000000000E+00 2.669150085E+02 -1.000000000E+00 -9.990000000E+02 0.000000000E+00 -9.990000000E+02
4.568491578E-01 9.143999815E-01 -1.206147578E-02 -4.216473177E-02 2.890694275E+02 0.000000000E+00 2.669065247E+02 -1.000000000E+00 -9.990000000E+02 0.000000000E+00 -9.990000000E+02
4.568491280E-01 9.143999815E-01 -1.206147205E-02 -4.216473177E-02 2.890694275E+02 0.000000000E+00 2.669065247E+02 -1.000000000E+00 -9.990000000E+02 0.000000000E+00 -9.990000000E+02
4.486843348E-01 9.143999815E-01 -1.051990874E-02 -5.678665265E-02 2.932703857E+02 0.000000000E+00 2.668979797E+02 -1.000000000E+00 -9.990000000E+02 0.000000000E+00 -9.990000000E+02
4.486843050E-01 9.143999815E-01 -1.051990502E-02 -5.678665265E-02 2.932703857E+02 0.000000000E+00 2.668979797E+02 -1.000000000E+00 -9.990000000E+02 0.000000000E+00 -9.990000000E+02
4.405163229E-01 9.143999815E-01 -8.995234035E-03 -7.140856981E-02 2.976578064E+02 0.000000000E+00 2.668894043E+02 -1.000000000E+00 -9.990000000E+02 0.000000000E+00 -9.990000000E+02
4.405162930E-01 9.143999815E-01 -8.995230310E-03 -7.140856981E-02 2.976578064E+02 0.000000000E+00 2.668894043E+02 -1.000000000E+00 -9.990000000E+02 0.000000000E+00 -9.990000000E+02
4.323451817E-01 9.143999815E-01 -7.487340830E-03 -8.614627272E-02 3.021317139E+02 0.000000000E+00 2.668807373E+02 -1.000000000E+00 -9.990000000E+02 0.000000000E+00 -9.990000000E+02
4.323451519E-01 9.143999815E-01 -7.487337105E-03 -8.614627272E-02 3.021317139E+02 0.000000000E+00 2.668807373E+02 -1.000000000E+00 -9.990000000E+02 0.000000000E+00 -9.990000000E+02
4.241710007E-01 9.143999815E-01 -5.996136460E-03 -1.009381711E-01 3.066007996E+02 0.000000000E+00 2.668720703E+02 -1.000000000E+00 -9.990000000E+02 0.000000000E+00 -9.990000000E+02
4.241709709E-01 9.143999815E-01 -5.996132735E-03 -1.009381711E-01 3.066007996E+02 0.000000000E+00 2.668720703E+02 -1.000000000E+00 -9.990000000E+02 0.000000000E+00 -9.990000000E+02
4.159938097E-01 9.143999815E-01 -4.521594383E-03 -1.154307574E-01 3.109783020E+02 0.000000000E+00 2.668635864E+02 -1.000000000E+00 -9.990000000E+02 0.000000000E+00 -9.990000000E+02
4.159937799E-01 9.143999815E-01 -4.521590658E-03 -1.154307574E-01 3.109783020E+02 0.000000000E+00 2.668635864E+02 -1.000000000E+00 -9.990000000E+02 0.000000000E+00 -9.990000000E+02
4.078136086E-01 9.143999815E-01 -3.063648008E-03 -1.297484338E-01 3.153829041E+02 0.000000000E+00 2.668551636E+02 -1.000000000E+00 -9.990000000E+02 0.000000000E+00 -9.990000000E+02
4.078135788E-01 9.143999815E-01 -3.063644283E-03 -1.297484338E-01 3.153829041E+02 0.000000000E+00 2.668551636E+02 -1.000000000E+00 -9.990000000E+02 0.000000000E+00 -9.990000000E+02
3.996304572E-01 9.143999815E-01 -1.622411306E-03 -1.442989111E-01 3.199173584E+02 0.000000000E+00 2.668466187E+02 -1.000000000E+00 -9.990000000E+02 0.000000000E+00 -9.990000000E+02
3.996304274E-01 9.143999815E-01 -1.622407581E-03 -1.442989111E-01 3.199173584E+02 0.000000000E+00 2.668466187E+02 -1.000000000E+00 -9.990000000E+02 0.000000000E+00 -9.990000000E+02
3.914443552E-01 9.143999815E-01 -1.980549423E-04 -1.588530838E-01 3.245195312E+02 0.000000000E+00 2.668380432E+02 -1.000000000E+00 -9.990000000E+02 0.000000000E+00 -9.990000000E+02
3.914443254E-01 9.143999815E-01 -1.980513043E-04 -1.588530838E-01 3.245195312E+02 0.000000000E+00 2.668380432E+02 -1.000000000E+00 -9.990000000E+02 0.000000000E+00 -9.990000000E+02
3.832553327E-01 9.143999815E-01 1.209355309E-03 -1.729724556E-01 3.292141724E+02 0.000000000E+00 2.668297119E+02 -1.000000000E+00 -9.990000000E+02 0.000000000E+00 -9.990000000E+02
3.832553029E-01 9.143999815E-01 1.209358918E-03 -1.729724556E-01 3.292141724E+02 0.000000000E+00 2.668297119E+02 -1.000000000E+00 -9.990000000E+02 0.000000000E+00 -9.990000000E+02
3.750633597E-01 9.143999815E-01 2.599546220E-03 -1.868245453E-01 3.340428467E+02 0.000000000E+00 2.668215637E+02 -1.000000000E+00 -9.990000000E+02 0.000000000E+00 -9.990000000E+02
3.750633299E-01 9.143999815E-01 2.599549713E-03 -1.868245453E-01 3.340428467E+02 0.000000000E+00 2.668215637E+02 -1.000000000E+00 -9.990000000E+02 0.000000000E+00 -9.990000000E+02
3.668684065E-01 9.143999815E-01 3.972084261E-03 -2.009648532E-01 3.390039978E+02 0.000000000E+00 2.668132324E+02 -1.000000000E+00 -9.990000000E+02 0.000000000E+00 -9.990000000E+02
3.668683767E-01 9.143999815E-01 3.972087987E-03 -2.009648532E-01 3.390039978E+02 0.000000000E+00 2.668132324E+02 -1.000000000E+00 -9.990000000E+02 0.000000000E+00 -9.990000000E+02
3.586705029E-01 9.143999815E-01 5.326793529E-03 -2.154168040E-01 3.441268311E+02 0.000000000E+00 2.668047180E+02 -1.000000000E+00 -9.990000000E+02 0.000000000E+00 -9.990000000E+02
3.586704731E-01 9.143999815E-01 5.326796789E-03 -2.154168040E-01 3.441268311E+02 0.000000000E+00 2.668047180E+02 -1.000000000E+00 -9.990000000E+02 0.000000000E+00 -9.990000000E+02
3.504695892E-01 9.143999815E-01 6.663271692E-03 -2.298046947E-01 3.494493103E+02 0.000000000E+00 2.667962036E+02 -1.000000000E+00 -9.990000000E+02 0.000000000E+00 -9.990000000E+02
3.504695594E-01 9.143999815E-01 6.663274951E-03 -2.298046947E-01 3.494493103E+02 0.000000000E+00 2.667962036E+02 -1.000000000E+00 -9.990000000E+02 0.000000000E+00 -9.990000000E+02
3.422656357E-01 9.143999815E-01 7.980861701E-03 -2.441125214E-01 3.549271240E+02 0.000000000E+00 2.667877502E+02 -1.000000000E+00 -9.990000000E+02 0.000000000E+00 -9.990000000E+02
3.422656059E-01 9.143999815E-01 7.980865426E-03 -2.441125214E-01 3.549271240E+02 0.000000000E+00 2.667877502E+02 -1.000000000E+00 -9.990000000E+02 0.000000000E+00 -9.990000000E+02
3.340585828E-01 9.143999815E-01 9.279062040E-03 -2.584252656E-01 3.604921875E+02 0.000000000E+00 2.667792969E+02 -1.000000000E+00 -9.990000000E+02 0.000000000E+00 -9.990000000E+02
3.340585530E-01 9.143999815E-01 9.279065765E-03 -2.584252656E-01 3.604921875E+02 0.000000000E+00 2.667792969E+02 -1.000000000E+00 -9.990000000E+02 0.000000000E+00 -9.990000000E+02
3.258483708E-01 9.143999815E-01 1.055725105E-02 -2.727392614E-01 3.661661377E+02 0.000000000E+00 2.667708130E+02 -1.000000000E+00 -9.990000000E+02 0.000000000E+00 -9.990000000E+02
3.258483410E-01 9.143999815E-01 1.055725385E-02 -2.727392614E-01 3.661661377E+02 0.000000000E+00 2.667708130E+02 -1.000000000E+00 -9.990000000E+02 0.000000000E+00 -9.990000000E+02
3.176349998E-01 9.143999815E-01 1.181472931E-02 -2.868598700E-01 3.717999878E+02 0.000000000E+00 2.667624512E+02 -1.000000000E+00 -9.990000000E+02 0.000000000E+00 -9.990000000E+02
3.176349699E-01 9.143999815E-01 1.181473210E-02 -2.868598700E-01 3.717999878E+02 0.000000000E+00 2.667624512E+02 -1.000000000E+00 -9.990000000E+02 0.000000000E+00 -9.990000000E+02
3.094183505E-01 9.143999815E-01 1.305074152E-02 -3.006429672E-01 3.769926453E+02 0.000000000E+00 2.667542725E+02 -1.000000000E+00 -9.990000000E+02 0.000000000E+00 -9.990000000E+02
3.094183207E-01 9.143999815E-01 1.305074431E-02 -3.006429672E-01 3.769926453E+02 0.000000000E+00 2.667542725E+02 -1.000000000E+00 -9.990000000E+02 0.000000000E+00 -9.990000000E+02
3.011983633E-01 9.143999815E-01 1.426440943E-02 -3.145960569E-01 3.816413574E+02 0.000000000E+00 2.667460327E+02 -1.000000000E+00 -9.990000000E+02 0.000000000E+00 -9.990000000E+02
3.011983335E-01 9.143999815E-01 1.426441222E-02 -3.145960569E-01 3.816413574E+02 0.000000000E+00 2.667460327E+02 -1.000000000E+00 -9.990000000E+02 0.000000000E+00 -9.990000000E+02
2.929749787E-01 9.143999815E-01 1.545481663E-02 -3.292770982E-01 3.861230469E+02 0.000000000E+00 2.667373047E+02 -1.000000000E+00 -9.990000000E+02 0.000000000E+00 -9.990000000E+02
2.929749489E-01 9.143999815E-01 1.545481943E-02 -3.292770982E-01 3.861230469E+02 0.000000000E+00 2.667373047E+02 -1.000000000E+00 -9.990000000E+02 0.000000000E+00 -9.990000000E+02
2.847481370E-01 9.143999815E-01 1.662091538E-02 -3.447476923E-01 3.906346130E+02 0.000000000E+00 2.667281189E+02 -1.000000000E+00 -9.990000000E+02 0.000000000E+00 -9.990000000E+02
2.847481072E-01 9.143999815E-01 1.662091911E-02 -3.447476923E-01 3.906346130E+02 0.000000000E+00 2.667281189E+02 -1.000000000E+00 -9.990000000E+02 0.000000000E+00 -9.990000000E+02
2.765177190E-01 9.143999815E-01 1.776162162E-02 -3.609437644E-01 3.949814453E+02 0.000000000E+00 2.667185059E+02 -1.000000000E+00 -9.990000000E+02 0.000000000E+00 -9.990000000E+02
2.765176892E-01 9.143999815E-01 1.776162535E-02 -3.609437644E-01 3.949814453E+02 0.000000000E+00 2.667185059E+02 -1.000000000E+00 -9.990000000E+02 0.000000000E+00 -9.990000000E+02
2.682836354E-01 9.143999815E-01 1.887570135E-02 -3.777323067E-01 3.991675415E+02 0.000000000E+00 2.667084961E+02 -1.000000000E+00 -9.990000000E+02 0.000000000E+00 -9.990000000E+02
2.682836056E-01 9.143999815E-01 1.887570508E-02 -3.777323067E-01 3.991675415E+02 0.000000000E+00 2.667084961E+02 -1.000000000E+00 -9.990000000E+02 0.000000000E+00 -9.990000000E+02
2.600458562E-01 9.143999815E-01 1.996186003E-02 -3.948743343E-01 4.034909668E+02 0.000000000E+00 2.666983032E+02 -1.000000000E+00 -9.990000000E+02 0.000000000E+00 -9.990000000E+02
2.600458264E-01 9.143999815E-01 1.996186189E-02 -3.948743343E-01 4.034909668E+02 0.000000000E+00 2.666983032E+02 -1.000000000E+00 -9.990000000E+02 0.000000000E+00 -9.990000000E+02
2.518042326E-01 9.143999815E-01 2.101863362E-02 -4.122380912E-01 4.082216797E+02 0.000000000E+00 2.666879272E+02 -1.000000000E+00 -9.990000000E+02 0.000000000E+00 -9.990000000E+02
2.518042028E-01 9.143999815E-01 2.101863548E-02 -4.122380912E-01 4.082216797E+02 0.000000000E+00 2.666879272E+02 -1.000000000E+00 -9.990000000E+02 0.000000000E+00 -9.990000000E+02
2.435586900E-01 9.143999815E-01 2.204455622E-02 -4.297545850E-01 4.133997803E+02 0.000000000E+00 2.666774902E+02 -1.000000000E+00 -9.990000000E+02 0.000000000E+00 -9.990000000E+02
2.435586751E-01 9.143999815E-01 2.204455808E-02 -4.297545850E-01 4.133997803E+02 0.000000000E+00 2.666774902E+02 -1.000000000E+00 -9.990000000E+02 0.000000000E+00 -9.990000000E+02
2.353091985E-01 9.143999815E-01 2.303793468E-02 -4.472834170E-01 4.187671204E+02 0.000000000E+00 2.666670532E+02 -1.000000000E+00 -9.990000000E+02 0.000000000E+00 -9.990000000E+02
2.353091836E-01 9.143999815E-01 2.303793654E-02 -4.472834170E-01 4.187671204E+02 0.000000000E+00 2.666670532E+02 -1.000000000E+00 -9.990000000E+02 0.000000000E+00 -9.990000000E+02
2.270556390E-01 9.143999815E-01 2.399702743E-02 -4.647678733E-01 4.242878418E+02 0.000000000E+00 2.666565857E+02 -1.000000000E+00 -9.990000000E+02 0.000000000E+00 -9.990000000E+02
2.270556241E-01 9.143999815E-01 2.399702929E-02 -4.647678733E-01 4.242878418E+02 0.000000000E+00 2.666565857E+02 -1.000000000E+00 -9.990000000E+02 0.000000000E+00 -9.990000000E+02
2.187979519E-01 9.143999815E-01 2.491986938E-02 -4.825836718E-01 4.305432434E+02 0.000000000E+00 2.666459351E+02 -1.000000000E+00 -9.990000000E+02 0.000000000E+00 -9.990000000E+02
2.187979370E-01 9.143999815E-01 2.491987124E-02 -4.825836718E-01 4.305432739E+02 0.000000000E+00 2.666459351E+02 -1.000000000E+00 -9.990000000E+02 0.000000000E+00 -9.990000000E+02
2.105360776E-01 9.143999815E-01 2.580442838E-02 -5.013331175E-01 4.380689697E+02 0.000000000E+00 2.666347046E+02 -1.000000000E+00 -9.990000000E+02 0.000000000E+00 -9.990000000E+02
2.105360627E-01 9.143999815E-01 2.580443025E-02 -5.013331175E-01 4.380690002E+02 0.000000000E+00 2.666347046E+02 -1.000000000E+00 -9.990000000E+02 0.000000000E+00 -9.990000000E+02
2.022699565E-01 9.143999815E-01 2.664833143E-02 -5.207304955E-01 4.466142273E+02 0.000000000E+00 2.666230774E+02 -1.000000000E+00 -9.990000000E+02 0.000000000E+00 -9.990000000E+02
2.022699416E-01 9.143999815E-01 2.664833330E-02 -5.207304955E-01 4.466142578E+02 0.000000000E+00 2.666230774E+02 -1.000000000E+00 -9.990000000E+02 0.000000000E+00 -9.990000000E+02
1.939995438E-01 9.143999815E-01 2.744921856E-02 -5.397965312E-01 4.552778320E+02 0.000000000E+00 2.666116333E+02 -1.000000000E+00 -9.990000000E+02 0.000000000E+00 -9.990000000E+02
1.939995289E-01 9.143999815E-01 2.744922042E-02 -5.397965312E-01 4.552778625E+02 0.000000000E+00 2.666116333E+02 -1.000000000E+00 -9.990000000E+02 0.000000000E+00 -9.990000000E+02
1.857248396E-01 9.143999815E-01 2.820446528E-02 -5.581924915E-01 4.631112366E+02 0.000000000E+00 2.666005859E+02 -1.000000000E+00 -9.990000000E+02 0.000000000E+00 -9.990000000E+02
1.857248247E-01 9.143999815E-01 2.820446715E-02 -5.581924915E-01 4.631112671E+02 0.000000000E+00 2.666005859E+02 -1.000000000E+00 -9.990000000E+02 0.000000000E+00 -9.990000000E+02
1.776592582E-01 9.143999815E-01 2.889362350E-02 -5.762829781E-01 4.696353149E+02 0.000000000E+00 2.665897217E+02 -1.000000000E+00 -9.990000000E+02 0.000000000E+00 -9.990000000E+02
1.776592433E-01 9.143999815E-01 2.889362536E-02 -5.762829781E-01 4.696353455E+02 0.000000000E+00 2.665897217E+02 -1.000000000E+00 -9.990000000E+02 0.000000000E+00 -9.990000000E+02
1.699739993E-01 9.143999815E-01 2.950436622E-02 -5.948168635E-01 4.751329041E+02 0.000000000E+00 2.665785828E+02 -1.000000000E+00 -9.990000000E+02 0.000000000E+00 -9.990000000E+02
1.699739844E-01 9.143999815E-01 2.950436808E-02 -5.948168635E-01 4.751329041E+02 0.000000000E+00 2.665785828E+02 -1.000000000E+00 -9.990000000E+02 0.000000000E+00 -9.990000000E+02
1.626513451E-01 9.143999815E-01 3.004222549E-02 -6.136820912E-01 4.803788452E+02 0.000000000E+00 2.665672302E+02 -1.000000000E+00 -9.990000000E+02 0.000000000E+00 -9.990000000E+02
1.626513302E-01 9.143999815E-01 3.004222736E-02 -6.136820912E-01 4.803788452E+02 0.000000000E+00 2.665672302E+02 -1.000000000E+00 -9.990000000E+02 0.000000000E+00 -9.990000000E+02
1.556744277E-01 9.143999815E-01 3.051230684E-02 -6.318292618E-01 4.859296875E+02 0.000000000E+00 2.665562744E+02 -1.000000000E+00 -9.990000000E+02 0.000000000E+00 -9.990000000E+02
1.556744128E-01 9.143999815E-01 3.051230870E-02 -6.318292618E-01 4.859296875E+02 0.000000000E+00 2.665562744E+02 -1.000000000E+00 -9.990000000E+02 0.000000000E+00 -9.990000000E+02
1.490271389E-01 9.143999815E-01 3.091955557E-02 -6.495305300E-01 4.919978638E+02 0.000000000E+00 2.665455933E+02 -1.000000000E+00 -9.990000000E+02 0.000000000E+00 -9.990000000E+02
1.490271240E-01 9.143999815E-01 3.091955744E-02 -6.495305300E-01 4.919978638E+02 0.000000000E+00 2.665455933E+02 -1.000000000E+00 -9.990000000E+02 0.000000000E+00 -9.990000000E+02
1.426941156E-01 9.143999815E-01 3.126847744E-02 -6.675236821E-01 4.987009583E+02 0.000000000E+00 2.665347290E+02 -1.000000000E+00 -9.990000000E+02 0.000000000E+00 -9.990000000E+02
1.426941007E-01 9.143999815E-01 3.126847744E-02 -6.675236821E-01 4.987009888E+02 0.000000000E+00 2.665347290E+02 -1.000000000E+00 -9.990000000E+02 0.000000000E+00 -9.990000000E+02
1.366607398E-01 9.143999815E-01 3.156361729E-02 -6.852815747E-01 5.059058838E+02 0.000000000E+00 2.665240173E+02 -1.000000000E+00 -9.990000000E+02 0.000000000E+00 -9.990000000E+02
1.366607249E-01 9.143999815E-01 3.156361729E-02 -6.852815747E-01 5.059059143E+02 0.000000000E+00 2.665240173E+02 -1.000000000E+00 -9.990000000E+02 0.000000000E+00 -9.990000000E+02
1.309130192E-01 9.143999815E-01 3.180893511E-02 -7.023288012E-01 5.134049072E+02 0.000000000E+00 2.665137024E+02 -1.000000000E+00 -9.990000000E+02 0.000000000E+00 -9.990000000E+02
1.309130043E-01 9.143999815E-01 3.180893511E-02 -7.023288012E-01 5.134049072E+02 0.000000000E+00 2.665137024E+02 -1.000000000E+00 -9.990000000E+02 0.000000000E+00 -9.990000000E+02
1.254376620E-01 9.143999815E-01 3.200848401E-02 -7.191702724E-01 5.211860352E+02 0.000000000E+00 2.665034790E+02 -1.000000000E+00 -9.990000000E+02 0.000000000E+00 -9.990000000E+02
1.254376471E-01 9.143999815E-01 3.200848401E-02 -7.191702724E-01 5.211860352E+02 0.000000000E+00 2.665034790E+02 -1.000000000E+00 -9.990000000E+02 0.000000000E+00 -9.990000000E+02
1.202219501E-01 9.143999815E-01 3.216591105E-02 -7.364909649E-01 5.288767700E+02 0.000000000E+00 2.664929810E+02 -1.000000000E+00 -9.990000000E+02 0.000000000E+00 -9.990000000E+02
1.202219352E-01 9.143999815E-01 3.216591105E-02 -7.364909649E-01 5.288767700E+02 0.000000000E+00 2.664929810E+02 -1.000000000E+00 -9.990000000E+02 0.000000000E+00 -9.990000000E+02
1.152537540E-01 9.143999815E-01 3.228462487E-02 -7.541331053E-01 5.362553711E+02 0.000000000E+00 2.664822998E+02 -1.000000000E+00 -9.990000000E+02 0.000000000E+00 -9.990000000E+02
1.152537391E-01 9.143999815E-01 3.228462487E-02 -7.541331053E-01 5.362553711E+02 0.000000000E+00 2.664822998E+02 -1.000000000E+00 -9.990000000E+02 0.000000000E+00 -9.990000000E+02
1.105215326E-01 9.143999815E-01 3.236804903E-02 -7.712443471E-01 5.438431396E+02 0.000000000E+00 2.664719238E+02 -1.000000000E+00 -9.990000000E+02 0.000000000E+00 -9.990000000E+02
1.105215177E-01 9.143999815E-01 3.236804903E-02 -7.712443471E-01 5.438431396E+02 0.000000000E+00 2.664719238E+02 -1.000000000E+00 -9.990000000E+02 0.000000000E+00 -9.990000000E+02
1.060142368E-01 9.143999815E-01 3.241894394E-02 -7.873135209E-01 5.516062622E+02 0.000000000E+00 2.664621582E+02 -1.000000000E+00 -9.990000000E+02 0.000000000E+00 -9.990000000E+02
1.060142219E-01 9.143999815E-01 3.241894394E-02 -7.873135209E-01 5.516062622E+02 0.000000000E+00 2.664621582E+02 -1.000000000E+00 -9.990000000E+02 0.000000000E+00 -9.990000000E+02
1.017213464E-01 9.143999815E-01 3.244039416E-02 -8.025698066E-01 5.588289795E+02 0.000000000E+00 2.664528809E+02 -1.000000000E+00 -9.990000000E+02 0.000000000E+00 -9.990000000E+02
1.017213389E-01 9.143999815E-01 3.244039416E-02 -8.025698066E-01 5.588289795E+02 0.000000000E+00 2.664528809E+02 -1.000000000E+00 -9.990000000E+02 0.000000000E+00 -9.990000000E+02
9.763284028E-02 9.143999815E-01 3.243505955E-02 -8.179763556E-01 5.651816406E+02 0.000000000E+00 2.664434814E+02 -1.000000000E+00 -9.990000000E+02 0.000000000E+00 -9.990000000E+02
9.763283283E-02 9.143999815E-01 3.243505955E-02 -8.179763556E-01 5.651816406E+02 0.000000000E+00 2.664434814E+02 -1.000000000E+00 -9.990000000E+02 0.000000000E+00 -9.990000000E+02
9.373912960E-02 9.143999815E-01 3.240542859E-02 -8.334555626E-01 5.710018311E+02 0.000000000E+00 2.664340515E+02 -1.000000000E+00 -9.990000000E+02 0.000000000E+00 -9.990000000E+02
9.373912215E-02 9.143999815E-01 3.240542859E-02 -8.334555626E-01 5.710018311E+02 0.000000000E+00 2.664340515E+02 -1.000000000E+00 -9.990000000E+02 0.000000000E+00 -9.990000000E+02
9.003108740E-02 9.143999815E-01 3.235390410E-02 -8.478533030E-01 5.769485474E+02 0.000000000E+00 2.664252930E+02 -1.000000000E+00 -9.990000000E+02 0.000000000E+00 -9.990000000E+02
9.003107995E-02 9.143999815E-01 3.235390410E-02 -8.478533030E-01 5.769485474E+02 0.000000000E+00 2.664252930E+02 -1.000000000E+00 -9.990000000E+02 0.000000000E+00 -9.990000000E+02
9.003107250E-02 9.143999815E-01 3.235390410E-02 -8.478533030E-01 5.769485474E+02 0.000000000E+00 2.664252930E+02 -1.000000000E+00 -9.990000000E+02 0.000000000E+00 -9.990000000E+02
8.618348092E-02 9.143999815E-01 3.227499872E-02 -8.627461791E-01 5.832979126E+02 0.000000000E+00 2.664161987E+02 -1.000000000E+00 -9.990000000E+02 0.000000000E+00 -9.990000000E+02
8.233653754E-02 9.143999815E-01 3.216897324E-02 -8.797318339E-01 5.901541138E+02 0.000000000E+00 2.664058228E+02 -1.000000000E+00 -9.990000000E+02 0.000000000E+00 -9.990000000E+02
8.233653009E-02 9.143999815E-01 3.216897324E-02 -8.797318339E-01 5.901541138E+02 0.000000000E+00 2.664058228E+02 -1.000000000E+00 -9.990000000E+02 0.000000000E+00 -9.990000000E+02
7.849048078E-02 9.143999815E-01 3.203428537E-02 -8.974071741E-01 5.977594604E+02 0.000000000E+00 2.663950195E+02 -1.000000000E+00 -9.990000000E+02 0.000000000E+00 -9.990000000E+02
7.849047333E-02 9.143999815E-01 3.203428537E-02 -8.974071741E-01 5.977594604E+02 0.000000000E+00 2.663950195E+02 -1.000000000E+00 -9.990000000E+02 0.000000000E+00 -9.990000000E+02
7.464560866E-02 9.143999815E-01 3.186920285E-02 -9.152266979E-01 6.058194580E+02 0.000000000E+00 2.663841248E+02 -1.000000000E+00 -9.990000000E+02 0.000000000E+00 -9.990000000E+02
7.464560121E-02 9.143999815E-01 3.186920285E-02 -9.152266979E-01 6.058194580E+02 0.000000000E+00 2.663841248E+02 -1.000000000E+00 -9.990000000E+02 0.000000000E+00 -9.990000000E+02
7.080224901E-02 9.143999815E-01 3.167203069E-02 -9.338037372E-01 6.138334351E+02 0.000000000E+00 2.663727417E+02 -1.000000000E+00 -9.990000000E+02 0.000000000E+00 -9.990000000E+02
7.080224156E-02 9.143999815E-01 3.167203069E-02 -9.338037372E-01 6.138334351E+02 0.000000000E+00 2.663727417E+02 -1.000000000E+00 -9.990000000E+02 0.000000000E+00 -9.990000000E+02
6.696080416E-02 9.143999815E-01 3.144054487E-02 -9.532995820E-01 6.219399414E+02 0.000000000E+00 2.663608093E+02 -1.000000000E+00 -9.990000000E+02 0.000000000E+00 -9.990000000E+02
6.696079671E-02 9.143999815E-01 3.144054487E-02 -9.532995820E-01 6.219399414E+02 0.000000000E+00 2.663608093E+02 -1.000000000E+00 -9.990000000E+02 0.000000000E+00 -9.990000000E+02
6.312174350E-02 9.143999815E-01 3.117241338E-02 -9.737858176E-01 6.304572144E+02 0.000000000E+00 2.663482361E+02 -1.000000000E+00 -9.990000000E+02 0.000000000E+00 -9.990000000E+02
6.312173605E-02 9.143999815E-01 3.117241338E-02 -9.737858176E-01 6.304572144E+02 0.000000000E+00 2.663482361E+02 -1.000000000E+00 -9.990000000E+02 0.000000000E+00 -9.990000000E+02
5.928562209E-02 9.143999815E-01 3.086512722E-02 -9.952771068E-01 6.392525635E+02 0.000000000E+00 2.663350220E+02 -1.000000000E+00 -9.990000000E+02 0.000000000E+00 -9.990000000E+02
5.928561091E-02 9.143999815E-01 3.086512722E-02 -9.952771068E-01 6.392525635E+02 0.000000000E+00 2.663350220E+02 -1.000000000E+00 -9.990000000E+02 0.000000000E+00 -9.990000000E+02
5.545312911E-02 9.143999815E-01 3.051542118E-02 -1.017679930E+00 6.484671021E+02 0.000000000E+00 2.663212585E+02 -1.000000000E+00 -9.990000000E+02 0.000000000E+00 -9.990000000E+02
5.545311794E-02 9.143999815E-01 3.051542118E-02 -1.017679930E+00 6.484671021E+02 0.000000000E+00 2.663212585E+02 -1.000000000E+00 -9.990000000E+02 0.000000000E+00 -9.990000000E+02
5.162509903E-02 9.143999815E-01 3.011987172E-02 -1.040952325E+00 6.590868530E+02 0.000000000E+00 2.663069458E+02 -1.000000000E+00 -9.990000000E+02 0.000000000E+00 -9.990000000E+02
5.162508786E-02 9.143999815E-01 3.011986986E-02 -1.040952325E+00 6.590868530E+02 0.000000000E+00 2.663069458E+02 -1.000000000E+00 -9.990000000E+02 0.000000000E+00 -9.990000000E+02
4.780254886E-02 9.143999815E-01 2.967444621E-02 -1.065369010E+00 6.716474609E+02 0.000000000E+00 2.662918701E+02 -1.000000000E+00 -9.990000000E+02 0.000000000E+00 -9.990000000E+02
4.780253768E-02 9.143999815E-01 2.967444435E-02 -1.065369010E+00 6.716475220E+02 0.000000000E+00 2.662918701E+02 -1.000000000E+00 -9.990000000E+02 0.000000000E+00 -9.990000000E+02
4.398681223E-02 9.143999815E-01 2.917401865E-02 -1.091140509E+00 6.851510010E+02 0.000000000E+00 2.662759399E+02 -1.000000000E+00 -9.990000000E+02 0.000000000E+00 -9.990000000E+02
4.398680106E-02 9.143999815E-01 2.917401679E-02 -1.091140509E+00 6.851510620E+02 0.000000000E+00 2.662759399E+02 -1.000000000E+00 -9.990000000E+02 0.000000000E+00 -9.990000000E+02
4.017948359E-02 9.143999815E-01 2.861317806E-02 -1.118018270E+00 6.994069824E+02 0.000000000E+00 2.662593384E+02 -1.000000000E+00 -9.990000000E+02 0.000000000E+00 -9.990000000E+02
4.017947242E-02 9.143999815E-01 2.861317620E-02 -1.118018270E+00 6.994070435E+02 0.000000000E+00 2.662593384E+02 -1.000000000E+00 -9.990000000E+02 0.000000000E+00 -9.990000000E+02