#+++++++++++++++++++++++++++++++++++++++++++++++++++++++++++++++++++++++++++++++++++++++++++++++++++++++++++++++++++++++++++++++++
#
#   IPW-3 Cut/Slice DATA SUBMITTAL FORM for Test Case NACA0012_AE3932, May 18th 2026
#
#       NOMENCLATURE:
#                  X [m]:  X-coordinate of the surface (clean for reference)
#                  Y [m]:  Y-coordinate of the surface (clean for reference)
#                  Z [m]:  Z-coordinate of the surface (clean for reference)
#                 Cp [-]:  Pressure coefficient
#            HTC [W/m2K]:  Convective Heat Transfer Coefficient (on the rough surface)
#               Beta [-]:  Collection efficiency
#                 Ts [K]:  Surface temperature
#                 FF [-]:  Freezing fraction
#                  k [m]:  Surface roughness height if variable (OPTIONAL)
#         RhoIce [kg/m3]:  Ice density (OPTIONAL)
#      HTC_CLEAN [W/m2K]:  Convective Heat Transfer Coefficient on the surface without roughness (OPTIONAL)
#
#                XXmm:  Roughness height used for the case, in mm.
#                       In the zone name, use the format KS_XXmm.
#                       For example, if k_s = 1.5 mm, use KS_1p5mm. 
#                       For Variable roughness, use KS_VAR
#
#    FLOW CONDITIONS:
#                                   AOA: 4.0 deg
#                           Mach Number: 0.3151 [-]
#       Mean aerodynamic chord (M.A.C.): 0.5334 [m]
#                       Reynolds Number: 3.9795 million (based on MAC)
#                       Freestream Temp: 267.55 [K]
#                        Reference area: 0.97548 [m2]
#               Moment Reference Center: 0.13335, 0, 0 [m] (X, Y, Z)
#
#    ICING CONDITIONS:
#                           Icing Time: 420 [s]
#                                  LWC: 0.55 [g/m3]
#                                  MVD: 20 [μm]
#
#              NOTES: 1. Please use at least 5 decimal places in the numerical values
#                     2. If data are NOT provided, please fill data fields with a numerical value of "-999" 
#
#++++++++++++++++++++++++++++++++++++++++++++++++++++++++++++++++++++++++++++++++++++++++++++++++++++++++++++++++++++

                                                    <- Optional ->                 
VARIABLES = "X" "Y" "Z" "Cp" "HTC" "Beta" "Ts" "FF" "k" "RhoIce" "HTC_CLEAN"

ZONE T="SLICE_Y_0p9144_BINS01_KS_0p5334mm_CUTDATA"
5.324723721E-01 9.143999815E-01 -2.723562904E-02 1.003494039E-01 2.049271698E+02 0.000000000E+00 2.669896240E+02 -1.000000000E+00 -9.990000000E+02 0.000000000E+00 -9.990000000E+02
5.322237611E-01 9.143999815E-01 -2.718285844E-02 1.094396040E-01 2.249324951E+02 0.000000000E+00 2.669949036E+02 -1.000000000E+00 -9.990000000E+02 0.000000000E+00 -9.990000000E+02
5.322237611E-01 9.143999815E-01 -2.718285844E-02 1.094396040E-01 2.249326477E+02 0.000000000E+00 2.669949036E+02 -1.000000000E+00 -9.990000000E+02 0.000000000E+00 -9.990000000E+02
5.318259001E-01 9.143999815E-01 -2.709846944E-02 1.080477387E-01 2.276233063E+02 0.000000000E+00 2.669941101E+02 -1.000000000E+00 -9.990000000E+02 0.000000000E+00 -9.990000000E+02
5.318259001E-01 9.143999815E-01 -2.709846944E-02 1.080477387E-01 2.276233215E+02 0.000000000E+00 2.669941101E+02 -1.000000000E+00 -9.990000000E+02 0.000000000E+00 -9.990000000E+02
5.311893225E-01 9.143999815E-01 -2.696358971E-02 1.064501852E-01 2.289647217E+02 0.000000000E+00 2.669931641E+02 -1.000000000E+00 -9.990000000E+02 0.000000000E+00 -9.990000000E+02
5.311893225E-01 9.143999815E-01 -2.696358785E-02 1.064501852E-01 2.289647369E+02 0.000000000E+00 2.669931641E+02 -1.000000000E+00 -9.990000000E+02 0.000000000E+00 -9.990000000E+02
5.301707983E-01 9.143999815E-01 -2.674788423E-02 1.042392179E-01 2.295361328E+02 0.000000000E+00 2.669918823E+02 -1.000000000E+00 -9.990000000E+02 0.000000000E+00 -9.990000000E+02
5.301707983E-01 9.143999815E-01 -2.674788237E-02 1.042392179E-01 2.295361328E+02 0.000000000E+00 2.669918823E+02 -1.000000000E+00 -9.990000000E+02 0.000000000E+00 -9.990000000E+02
5.285409093E-01 9.143999815E-01 -2.640357241E-02 1.009701937E-01 2.307707367E+02 0.000000000E+00 2.669899902E+02 -1.000000000E+00 -9.990000000E+02 0.000000000E+00 -9.990000000E+02
5.285409093E-01 9.143999815E-01 -2.640357055E-02 1.009701937E-01 2.307707520E+02 0.000000000E+00 2.669899902E+02 -1.000000000E+00 -9.990000000E+02 0.000000000E+00 -9.990000000E+02
5.260180831E-01 9.143999815E-01 -2.587223984E-02 9.664927423E-02 2.331509857E+02 0.000000000E+00 2.669874878E+02 -1.000000000E+00 -9.990000000E+02 0.000000000E+00 -9.990000000E+02
5.260180831E-01 9.143999815E-01 -2.587223612E-02 9.664927423E-02 2.331510010E+02 0.000000000E+00 2.669874878E+02 -1.000000000E+00 -9.990000000E+02 0.000000000E+00 -9.990000000E+02
5.234947801E-01 9.143999815E-01 -2.534301579E-02 9.175189584E-02 2.361612701E+02 0.000000000E+00 2.669846191E+02 -1.000000000E+00 -9.990000000E+02 0.000000000E+00 -9.990000000E+02
5.234947801E-01 9.143999815E-01 -2.534301206E-02 9.175189584E-02 2.361612854E+02 0.000000000E+00 2.669846191E+02 -1.000000000E+00 -9.990000000E+02 0.000000000E+00 -9.990000000E+02
5.209710598E-01 9.143999815E-01 -2.481572516E-02 8.673873544E-02 2.391207428E+02 0.000000000E+00 2.669817200E+02 -1.000000000E+00 -9.990000000E+02 0.000000000E+00 -9.990000000E+02
5.209710598E-01 9.143999815E-01 -2.481572144E-02 8.673873544E-02 2.391207581E+02 0.000000000E+00 2.669817200E+02 -1.000000000E+00 -9.990000000E+02 0.000000000E+00 -9.990000000E+02
5.184469223E-01 9.143999815E-01 -2.429043129E-02 8.175390959E-02 2.418257904E+02 0.000000000E+00 2.669788208E+02 -1.000000000E+00 -9.990000000E+02 0.000000000E+00 -9.990000000E+02
5.184469223E-01 9.143999815E-01 -2.429042757E-02 8.175390959E-02 2.418258057E+02 0.000000000E+00 2.669788208E+02 -1.000000000E+00 -9.990000000E+02 0.000000000E+00 -9.990000000E+02
5.159224272E-01 9.143999815E-01 -2.376710065E-02 7.679741085E-02 2.443087006E+02 0.000000000E+00 2.669759521E+02 -1.000000000E+00 -9.990000000E+02 0.000000000E+00 -9.990000000E+02
5.159224272E-01 9.143999815E-01 -2.376709692E-02 7.679741085E-02 2.443087158E+02 0.000000000E+00 2.669759521E+02 -1.000000000E+00 -9.990000000E+02 0.000000000E+00 -9.990000000E+02
5.133975148E-01 9.143999815E-01 -2.324569784E-02 7.186184824E-02 2.466096497E+02 0.000000000E+00 2.669730530E+02 -1.000000000E+00 -9.990000000E+02 0.000000000E+00 -9.990000000E+02
5.133975148E-01 9.143999815E-01 -2.324569412E-02 7.186184824E-02 2.466096649E+02 0.000000000E+00 2.669730530E+02 -1.000000000E+00 -9.990000000E+02 0.000000000E+00 -9.990000000E+02
5.108721852E-01 9.143999815E-01 -2.272613905E-02 6.692875177E-02 2.487822113E+02 0.000000000E+00 2.669701843E+02 -1.000000000E+00 -9.990000000E+02 0.000000000E+00 -9.990000000E+02
5.108721852E-01 9.143999815E-01 -2.272613533E-02 6.692875177E-02 2.487822266E+02 0.000000000E+00 2.669701843E+02 -1.000000000E+00 -9.990000000E+02 0.000000000E+00 -9.990000000E+02
5.083464384E-01 9.143999815E-01 -2.220859565E-02 6.192667782E-02 2.509122925E+02 0.000000000E+00 2.669672852E+02 -1.000000000E+00 -9.990000000E+02 0.000000000E+00 -9.990000000E+02
5.083464384E-01 9.143999815E-01 -2.220859192E-02 6.192667782E-02 2.509123077E+02 0.000000000E+00 2.669672852E+02 -1.000000000E+00 -9.990000000E+02 0.000000000E+00 -9.990000000E+02
5.058203936E-01 9.143999815E-01 -2.169285528E-02 5.684577301E-02 2.530789642E+02 0.000000000E+00 2.669643250E+02 -1.000000000E+00 -9.990000000E+02 0.000000000E+00 -9.990000000E+02
5.058203936E-01 9.143999815E-01 -2.169285156E-02 5.684577301E-02 2.530789795E+02 0.000000000E+00 2.669643250E+02 -1.000000000E+00 -9.990000000E+02 0.000000000E+00 -9.990000000E+02
5.032938719E-01 9.143999815E-01 -2.117901295E-02 5.179319903E-02 2.552882233E+02 0.000000000E+00 2.669613953E+02 -1.000000000E+00 -9.990000000E+02 0.000000000E+00 -9.990000000E+02
5.032938719E-01 9.143999815E-01 -2.117900923E-02 5.179319903E-02 2.552882385E+02 0.000000000E+00 2.669613953E+02 -1.000000000E+00 -9.990000000E+02 0.000000000E+00 -9.990000000E+02
5.007670522E-01 9.143999815E-01 -2.066695131E-02 4.678866267E-02 2.574959106E+02 0.000000000E+00 2.669584656E+02 -1.000000000E+00 -9.990000000E+02 0.000000000E+00 -9.990000000E+02
5.007670522E-01 9.143999815E-01 -2.066694759E-02 4.678866267E-02 2.574959412E+02 0.000000000E+00 2.669584656E+02 -1.000000000E+00 -9.990000000E+02 0.000000000E+00 -9.990000000E+02
4.982398450E-01 9.143999815E-01 -2.015683055E-02 4.174840450E-02 2.596662903E+02 0.000000000E+00 2.669555054E+02 -1.000000000E+00 -9.990000000E+02 0.000000000E+00 -9.990000000E+02
4.982398152E-01 9.143999815E-01 -2.015682682E-02 4.174840450E-02 2.596663208E+02 0.000000000E+00 2.669555054E+02 -1.000000000E+00 -9.990000000E+02 0.000000000E+00 -9.990000000E+02
4.957122803E-01 9.143999815E-01 -1.964846440E-02 3.667119518E-02 2.617914734E+02 0.000000000E+00 2.669525757E+02 -1.000000000E+00 -9.990000000E+02 0.000000000E+00 -9.990000000E+02
4.957122505E-01 9.143999815E-01 -1.964846067E-02 3.667119518E-02 2.617915039E+02 0.000000000E+00 2.669525757E+02 -1.000000000E+00 -9.990000000E+02 0.000000000E+00 -9.990000000E+02
4.931842983E-01 9.143999815E-01 -1.914197952E-02 3.159645200E-02 2.638731689E+02 0.000000000E+00 2.669496155E+02 -1.000000000E+00 -9.990000000E+02 0.000000000E+00 -9.990000000E+02
4.931842685E-01 9.143999815E-01 -1.914197579E-02 3.159645200E-02 2.638731689E+02 0.000000000E+00 2.669496155E+02 -1.000000000E+00 -9.990000000E+02 0.000000000E+00 -9.990000000E+02
4.906559885E-01 9.143999815E-01 -1.863726415E-02 2.652909607E-02 2.659130859E+02 0.000000000E+00 2.669466553E+02 -1.000000000E+00 -9.990000000E+02 0.000000000E+00 -9.990000000E+02
4.906559587E-01 9.143999815E-01 -1.863726042E-02 2.652909607E-02 2.659130859E+02 0.000000000E+00 2.669466553E+02 -1.000000000E+00 -9.990000000E+02 0.000000000E+00 -9.990000000E+02
4.881273210E-01 9.143999815E-01 -1.813430339E-02 2.145681344E-02 2.679201050E+02 0.000000000E+00 2.669437256E+02 -1.000000000E+00 -9.990000000E+02 0.000000000E+00 -9.990000000E+02
4.881272912E-01 9.143999815E-01 -1.813429967E-02 2.145681344E-02 2.679201050E+02 0.000000000E+00 2.669437256E+02 -1.000000000E+00 -9.990000000E+02 0.000000000E+00 -9.990000000E+02
4.855982959E-01 9.143999815E-01 -1.763311587E-02 1.638453081E-02 2.698931274E+02 0.000000000E+00 2.669407349E+02 -1.000000000E+00 -9.990000000E+02 0.000000000E+00 -9.990000000E+02
4.855982661E-01 9.143999815E-01 -1.763311215E-02 1.638453081E-02 2.698931274E+02 0.000000000E+00 2.669407349E+02 -1.000000000E+00 -9.990000000E+02 0.000000000E+00 -9.990000000E+02
4.830689430E-01 9.143999815E-01 -1.713372953E-02 1.132087130E-02 2.718193970E+02 0.000000000E+00 2.669378052E+02 -1.000000000E+00 -9.990000000E+02 0.000000000E+00 -9.990000000E+02
4.830689132E-01 9.143999815E-01 -1.713372581E-02 1.132087130E-02 2.718193970E+02 0.000000000E+00 2.669378052E+02 -1.000000000E+00 -9.990000000E+02 0.000000000E+00 -9.990000000E+02
4.805392027E-01 9.143999815E-01 -1.663607545E-02 6.274455227E-03 2.737019653E+02 0.000000000E+00 2.669348450E+02 -1.000000000E+00 -9.990000000E+02 0.000000000E+00 -9.990000000E+02
4.805391729E-01 9.143999815E-01 -1.663607173E-02 6.274455227E-03 2.737019653E+02 0.000000000E+00 2.669348450E+02 -1.000000000E+00 -9.990000000E+02 0.000000000E+00 -9.990000000E+02
4.780091643E-01 9.143999815E-01 -1.614014991E-02 1.244051731E-03 2.755528870E+02 0.000000000E+00 2.669319153E+02 -1.000000000E+00 -9.990000000E+02 0.000000000E+00 -9.990000000E+02
4.780091345E-01 9.143999815E-01 -1.614014618E-02 1.244051731E-03 2.755528870E+02 0.000000000E+00 2.669319153E+02 -1.000000000E+00 -9.990000000E+02 0.000000000E+00 -9.990000000E+02
4.754787683E-01 9.143999815E-01 -1.564594172E-02 -3.772802418E-03 2.773740845E+02 0.000000000E+00 2.669289856E+02 -1.000000000E+00 -9.990000000E+02 0.000000000E+00 -9.990000000E+02
4.754787385E-01 9.143999815E-01 -1.564593799E-02 -3.772802418E-03 2.773740845E+02 0.000000000E+00 2.669289856E+02 -1.000000000E+00 -9.990000000E+02 0.000000000E+00 -9.990000000E+02
4.729480445E-01 9.143999815E-01 -1.515344717E-02 -8.778571151E-03 2.791712952E+02 0.000000000E+00 2.669260559E+02 -1.000000000E+00 -9.990000000E+02 0.000000000E+00 -9.990000000E+02
4.729480147E-01 9.143999815E-01 -1.515344344E-02 -8.778571151E-03 2.791712952E+02 0.000000000E+00 2.669260559E+02 -1.000000000E+00 -9.990000000E+02 0.000000000E+00 -9.990000000E+02
4.704169929E-01 9.143999815E-01 -1.466265228E-02 -1.378310751E-02 2.809506836E+02 0.000000000E+00 2.669231262E+02 -1.000000000E+00 -9.990000000E+02 0.000000000E+00 -9.990000000E+02
4.704169631E-01 9.143999815E-01 -1.466264855E-02 -1.378310751E-02 2.809506836E+02 0.000000000E+00 2.669231262E+02 -1.000000000E+00 -9.990000000E+02 0.000000000E+00 -9.990000000E+02
4.678856134E-01 9.143999815E-01 -1.417353470E-02 -1.879873127E-02 2.827072144E+02 0.000000000E+00 2.669201965E+02 -1.000000000E+00 -9.990000000E+02 0.000000000E+00 -9.990000000E+02
4.678855836E-01 9.143999815E-01 -1.417353097E-02 -1.879873127E-02 2.827072144E+02 0.000000000E+00 2.669201965E+02 -1.000000000E+00 -9.990000000E+02 0.000000000E+00 -9.990000000E+02
4.653538764E-01 9.143999815E-01 -1.368615218E-02 -2.378725447E-02 2.844472961E+02 0.000000000E+00 2.669172974E+02 -1.000000000E+00 -9.990000000E+02 0.000000000E+00 -9.990000000E+02
4.653538465E-01 9.143999815E-01 -1.368614845E-02 -2.378725447E-02 2.844472961E+02 0.000000000E+00 2.669172974E+02 -1.000000000E+00 -9.990000000E+02 0.000000000E+00 -9.990000000E+02
4.628218412E-01 9.143999815E-01 -1.320043392E-02 -2.871788666E-02 2.861855774E+02 0.000000000E+00 2.669143982E+02 -1.000000000E+00 -9.990000000E+02 0.000000000E+00 -9.990000000E+02
4.628218114E-01 9.143999815E-01 -1.320043020E-02 -2.871788666E-02 2.861855774E+02 0.000000000E+00 2.669143982E+02 -1.000000000E+00 -9.990000000E+02 0.000000000E+00 -9.990000000E+02
4.602895081E-01 9.143999815E-01 -1.271638833E-02 -3.363373876E-02 2.879297485E+02 0.000000000E+00 2.669115295E+02 -1.000000000E+00 -9.990000000E+02 0.000000000E+00 -9.990000000E+02
4.602894783E-01 9.143999815E-01 -1.271638460E-02 -3.363373876E-02 2.879297485E+02 0.000000000E+00 2.669115295E+02 -1.000000000E+00 -9.990000000E+02 0.000000000E+00 -9.990000000E+02
4.577568471E-01 9.143999815E-01 -1.223395951E-02 -3.855698183E-02 2.896752014E+02 0.000000000E+00 2.669086304E+02 -1.000000000E+00 -9.990000000E+02 0.000000000E+00 -9.990000000E+02
4.577568173E-01 9.143999815E-01 -1.223395579E-02 -3.855698183E-02 2.896752014E+02 0.000000000E+00 2.669086304E+02 -1.000000000E+00 -9.990000000E+02 0.000000000E+00 -9.990000000E+02
4.552238584E-01 9.143999815E-01 -1.175316889E-02 -4.346174747E-02 2.914052429E+02 0.000000000E+00 2.669057617E+02 -1.000000000E+00 -9.990000000E+02 0.000000000E+00 -9.990000000E+02
4.552238286E-01 9.143999815E-01 -1.175316516E-02 -4.346174747E-02 2.914052429E+02 0.000000000E+00 2.669057617E+02 -1.000000000E+00 -9.990000000E+02 0.000000000E+00 -9.990000000E+02
4.526905417E-01 9.143999815E-01 -1.127410959E-02 -4.831478372E-02 2.931168213E+02 0.000000000E+00 2.669029236E+02 -1.000000000E+00 -9.990000000E+02 0.000000000E+00 -9.990000000E+02
4.526905119E-01 9.143999815E-01 -1.127410587E-02 -4.831478372E-02 2.931168213E+02 0.000000000E+00 2.669029236E+02 -1.000000000E+00 -9.990000000E+02 0.000000000E+00 -9.990000000E+02
4.501569569E-01 9.143999815E-01 -1.079664659E-02 -5.312593654E-02 2.948157043E+02 0.000000000E+00 2.669001160E+02 -1.000000000E+00 -9.990000000E+02 0.000000000E+00 -9.990000000E+02
4.501569271E-01 9.143999815E-01 -1.079664286E-02 -5.312593654E-02 2.948157043E+02 0.000000000E+00 2.669001160E+02 -1.000000000E+00 -9.990000000E+02 0.000000000E+00 -9.990000000E+02
4.476230443E-01 9.143999815E-01 -1.032076683E-02 -5.792107806E-02 2.964988403E+02 0.000000000E+00 2.668973083E+02 -1.000000000E+00 -9.990000000E+02 0.000000000E+00 -9.990000000E+02
4.476230145E-01 9.143999815E-01 -1.032076310E-02 -5.792107806E-02 2.964988403E+02 0.000000000E+00 2.668973083E+02 -1.000000000E+00 -9.990000000E+02 0.000000000E+00 -9.990000000E+02
4.450888336E-01 9.143999815E-01 -9.846596979E-03 -6.267064810E-02 2.981556091E+02 0.000000000E+00 2.668945312E+02 -1.000000000E+00 -9.990000000E+02 0.000000000E+00 -9.990000000E+02
4.450888038E-01 9.143999815E-01 -9.846593253E-03 -6.267064810E-02 2.981556091E+02 0.000000000E+00 2.668945312E+02 -1.000000000E+00 -9.990000000E+02 0.000000000E+00 -9.990000000E+02
4.425542951E-01 9.143999815E-01 -9.374016896E-03 -6.734137982E-02 2.997615662E+02 0.000000000E+00 2.668917847E+02 -1.000000000E+00 -9.990000000E+02 0.000000000E+00 -9.990000000E+02
4.425542653E-01 9.143999815E-01 -9.374013171E-03 -6.734137982E-02 2.997615662E+02 0.000000000E+00 2.668917847E+02 -1.000000000E+00 -9.990000000E+02 0.000000000E+00 -9.990000000E+02
4.400194883E-01 9.143999815E-01 -8.902996778E-03 -7.193944603E-02 3.012880554E+02 0.000000000E+00 2.668890991E+02 -1.000000000E+00 -9.990000000E+02 0.000000000E+00 -9.990000000E+02
4.400194585E-01 9.143999815E-01 -8.902993053E-03 -7.193944603E-02 3.012880554E+02 0.000000000E+00 2.668890991E+02 -1.000000000E+00 -9.990000000E+02 0.000000000E+00 -9.990000000E+02
4.374843538E-01 9.143999815E-01 -8.433709852E-03 -7.649563253E-02 3.027307434E+02 0.000000000E+00 2.668864136E+02 -1.000000000E+00 -9.990000000E+02 0.000000000E+00 -9.990000000E+02
4.374843240E-01 9.143999815E-01 -8.433706127E-03 -7.649563253E-02 3.027307434E+02 0.000000000E+00 2.668864136E+02 -1.000000000E+00 -9.990000000E+02 0.000000000E+00 -9.990000000E+02
4.349489510E-01 9.143999815E-01 -7.965944707E-03 -8.105181903E-02 3.041187744E+02 0.000000000E+00 2.668837585E+02 -1.000000000E+00 -9.990000000E+02 0.000000000E+00 -9.990000000E+02
4.349489212E-01 9.143999815E-01 -7.965940982E-03 -8.105181903E-02 3.041187744E+02 0.000000000E+00 2.668837585E+02 -1.000000000E+00 -9.990000000E+02 0.000000000E+00 -9.990000000E+02
4.324132204E-01 9.143999815E-01 -7.499831729E-03 -8.562032133E-02 3.054967041E+02 0.000000000E+00 2.668810730E+02 -1.000000000E+00 -9.990000000E+02 0.000000000E+00 -9.990000000E+02
4.324131906E-01 9.143999815E-01 -7.499828469E-03 -8.562032133E-02 3.054967041E+02 0.000000000E+00 2.668810730E+02 -1.000000000E+00 -9.990000000E+02 0.000000000E+00 -9.990000000E+02
4.298772216E-01 9.143999815E-01 -7.035299204E-03 -9.019498527E-02 3.069025879E+02 0.000000000E+00 2.668783875E+02 -1.000000000E+00 -9.990000000E+02 0.000000000E+00 -9.990000000E+02
4.298771918E-01 9.143999815E-01 -7.035295945E-03 -9.019498527E-02 3.069025879E+02 0.000000000E+00 2.668783875E+02 -1.000000000E+00 -9.990000000E+02 0.000000000E+00 -9.990000000E+02
4.273409247E-01 9.143999815E-01 -6.572367158E-03 -9.476594627E-02 3.083436279E+02 0.000000000E+00 2.668757019E+02 -1.000000000E+00 -9.990000000E+02 0.000000000E+00 -9.990000000E+02
4.273408949E-01 9.143999815E-01 -6.572363898E-03 -9.476594627E-02 3.083436279E+02 0.000000000E+00 2.668757019E+02 -1.000000000E+00 -9.990000000E+02 0.000000000E+00 -9.990000000E+02
4.248043299E-01 9.143999815E-01 -6.111073308E-03 -9.932706505E-02 3.097978516E+02 0.000000000E+00 2.668730469E+02 -1.000000000E+00 -9.990000000E+02 0.000000000E+00 -9.990000000E+02
4.248043001E-01 9.143999815E-01 -6.111070048E-03 -9.932706505E-02 3.097978516E+02 0.000000000E+00 2.668730469E+02 -1.000000000E+00 -9.990000000E+02 0.000000000E+00 -9.990000000E+02
4.222674370E-01 9.143999815E-01 -5.651320331E-03 -1.038746238E-01 3.112553101E+02 0.000000000E+00 2.668703613E+02 -1.000000000E+00 -9.990000000E+02 0.000000000E+00 -9.990000000E+02
4.222674072E-01 9.143999815E-01 -5.651317071E-03 -1.038746238E-01 3.112553101E+02 0.000000000E+00 2.668703613E+02 -1.000000000E+00 -9.990000000E+02 0.000000000E+00 -9.990000000E+02
4.197302759E-01 9.143999815E-01 -5.193241872E-03 -1.084074080E-01 3.127235107E+02 0.000000000E+00 2.668677063E+02 -1.000000000E+00 -9.990000000E+02 0.000000000E+00 -9.990000000E+02
4.197302461E-01 9.143999815E-01 -5.193238612E-03 -1.084074080E-01 3.127235107E+02 0.000000000E+00 2.668677063E+02 -1.000000000E+00 -9.990000000E+02 0.000000000E+00 -9.990000000E+02
4.171928167E-01 9.143999815E-01 -4.736695439E-03 -1.129278764E-01 3.141907654E+02 0.000000000E+00 2.668650513E+02 -1.000000000E+00 -9.990000000E+02 0.000000000E+00 -9.990000000E+02
4.171927869E-01 9.143999815E-01 -4.736692179E-03 -1.129278764E-01 3.141907654E+02 0.000000000E+00 2.668650513E+02 -1.000000000E+00 -9.990000000E+02 0.000000000E+00 -9.990000000E+02
4.146550596E-01 9.143999815E-01 -4.281803034E-03 -1.174606532E-01 3.156445923E+02 0.000000000E+00 2.668623657E+02 -1.000000000E+00 -9.990000000E+02 0.000000000E+00 -9.990000000E+02
4.146550298E-01 9.143999815E-01 -4.281799775E-03 -1.174606532E-01 3.156445923E+02 0.000000000E+00 2.668623657E+02 -1.000000000E+00 -9.990000000E+02 0.000000000E+00 -9.990000000E+02
4.121170342E-01 9.143999815E-01 -3.828475019E-03 -1.220106855E-01 3.171017456E+02 0.000000000E+00 2.668597107E+02 -1.000000000E+00 -9.990000000E+02 0.000000000E+00 -9.990000000E+02
4.121170044E-01 9.143999815E-01 -3.828471759E-03 -1.220106855E-01 3.171017456E+02 0.000000000E+00 2.668597107E+02 -1.000000000E+00 -9.990000000E+02 0.000000000E+00 -9.990000000E+02
4.095786810E-01 9.143999815E-01 -3.376783803E-03 -1.265200675E-01 3.185707703E+02 0.000000000E+00 2.668570557E+02 -1.000000000E+00 -9.990000000E+02 0.000000000E+00 -9.990000000E+02
4.095786512E-01 9.143999815E-01 -3.376780543E-03 -1.265200675E-01 3.185707703E+02 0.000000000E+00 2.668570557E+02 -1.000000000E+00 -9.990000000E+02 0.000000000E+00 -9.990000000E+02
4.070400894E-01 9.143999815E-01 -2.926689573E-03 -1.309974194E-01 3.200402527E+02 0.000000000E+00 2.668544312E+02 -1.000000000E+00 -9.990000000E+02 0.000000000E+00 -9.990000000E+02
4.070400596E-01 9.143999815E-01 -2.926686313E-03 -1.309974194E-01 3.200402527E+02 0.000000000E+00 2.668544312E+02 -1.000000000E+00 -9.990000000E+02 0.000000000E+00 -9.990000000E+02
4.045011997E-01 9.143999815E-01 -2.478146460E-03 -1.354698390E-01 3.215121460E+02 0.000000000E+00 2.668518066E+02 -1.000000000E+00 -9.990000000E+02 0.000000000E+00 -9.990000000E+02
4.045011699E-01 9.143999815E-01 -2.478143200E-03 -1.354698390E-01 3.215121460E+02 0.000000000E+00 2.668518066E+02 -1.000000000E+00 -9.990000000E+02 0.000000000E+00 -9.990000000E+02
4.019620121E-01 9.143999815E-01 -2.031329321E-03 -1.399188638E-01 3.229929504E+02 0.000000000E+00 2.668491821E+02 -1.000000000E+00 -9.990000000E+02 0.000000000E+00 -9.990000000E+02
4.019619823E-01 9.143999815E-01 -2.031326061E-03 -1.399188638E-01 3.229929504E+02 0.000000000E+00 2.668491821E+02 -1.000000000E+00 -9.990000000E+02 0.000000000E+00 -9.990000000E+02
3.994225562E-01 9.143999815E-01 -1.585983438E-03 -1.443629712E-01 3.244783020E+02 0.000000000E+00 2.668465576E+02 -1.000000000E+00 -9.990000000E+02 0.000000000E+00 -9.990000000E+02
3.994225264E-01 9.143999815E-01 -1.585980179E-03 -1.443629712E-01 3.244783020E+02 0.000000000E+00 2.668465576E+02 -1.000000000E+00 -9.990000000E+02 0.000000000E+00 -9.990000000E+02
3.968828022E-01 9.143999815E-01 -1.142410561E-03 -1.488304734E-01 3.259734497E+02 0.000000000E+00 2.668439331E+02 -1.000000000E+00 -9.990000000E+02 0.000000000E+00 -9.990000000E+02
3.968827724E-01 9.143999815E-01 -1.142407302E-03 -1.488304734E-01 3.259734497E+02 0.000000000E+00 2.668439331E+02 -1.000000000E+00 -9.990000000E+02 0.000000000E+00 -9.990000000E+02
3.943427801E-01 9.143999815E-01 -7.003724459E-04 -1.532807201E-01 3.274772339E+02 0.000000000E+00 2.668413391E+02 -1.000000000E+00 -9.990000000E+02 0.000000000E+00 -9.990000000E+02
3.943427503E-01 9.143999815E-01 -7.003692444E-04 -1.532807201E-01 3.274772339E+02 0.000000000E+00 2.668413391E+02 -1.000000000E+00 -9.990000000E+02 0.000000000E+00 -9.990000000E+02
3.918024898E-01 9.143999815E-01 -2.599571890E-04 -1.576903313E-01 3.289795227E+02 0.000000000E+00 2.668387451E+02 -1.000000000E+00 -9.990000000E+02 0.000000000E+00 -9.990000000E+02
3.918024600E-01 9.143999815E-01 -2.599539876E-04 -1.576903313E-01 3.289795227E+02 0.000000000E+00 2.668387451E+02 -1.000000000E+00 -9.990000000E+02 0.000000000E+00 -9.990000000E+02
3.892618716E-01 9.143999815E-01 1.787438232E-04 -1.621036381E-01 3.304973145E+02 0.000000000E+00 2.668361206E+02 -1.000000000E+00 -9.990000000E+02 0.000000000E+00 -9.990000000E+02
3.892618418E-01 9.143999815E-01 1.787470246E-04 -1.621036381E-01 3.304973145E+02 0.000000000E+00 2.668361206E+02 -1.000000000E+00 -9.990000000E+02 0.000000000E+00 -9.990000000E+02
3.867210150E-01 9.143999815E-01 6.159219192E-04 -1.665292531E-01 3.320612183E+02 0.000000000E+00 2.668335266E+02 -1.000000000E+00 -9.990000000E+02 0.000000000E+00 -9.990000000E+02
3.867209852E-01 9.143999815E-01 6.159251207E-04 -1.665292531E-01 3.320612183E+02 0.000000000E+00 2.668335266E+02 -1.000000000E+00 -9.990000000E+02 0.000000000E+00 -9.990000000E+02
3.841798306E-01 9.143999815E-01 1.051343977E-03 -1.709561199E-01 3.336882935E+02 0.000000000E+00 2.668309326E+02 -1.000000000E+00 -9.990000000E+02 0.000000000E+00 -9.990000000E+02
3.841798007E-01 9.143999815E-01 1.051347121E-03 -1.709561199E-01 3.336882935E+02 0.000000000E+00 2.668309326E+02 -1.000000000E+00 -9.990000000E+02 0.000000000E+00 -9.990000000E+02
3.816384077E-01 9.143999815E-01 1.485136803E-03 -1.753940582E-01 3.353523254E+02 0.000000000E+00 2.668283081E+02 -1.000000000E+00 -9.990000000E+02 0.000000000E+00 -9.990000000E+02
3.816383779E-01 9.143999815E-01 1.485139946E-03 -1.753940582E-01 3.353523254E+02 0.000000000E+00 2.668283081E+02 -1.000000000E+00 -9.990000000E+02 0.000000000E+00 -9.990000000E+02
3.790966868E-01 9.143999815E-01 1.917375368E-03 -1.797987372E-01 3.369991455E+02 0.000000000E+00 2.668257141E+02 -1.000000000E+00 -9.990000000E+02 0.000000000E+00 -9.990000000E+02
3.790966570E-01 9.143999815E-01 1.917378511E-03 -1.797987372E-01 3.369991455E+02 0.000000000E+00 2.668257141E+02 -1.000000000E+00 -9.990000000E+02 0.000000000E+00 -9.990000000E+02
3.765546679E-01 9.143999815E-01 2.347750124E-03 -1.841615438E-01 3.386243896E+02 0.000000000E+00 2.668231201E+02 -1.000000000E+00 -9.990000000E+02 0.000000000E+00 -9.990000000E+02
3.765546381E-01 9.143999815E-01 2.347753150E-03 -1.841615438E-01 3.386243896E+02 0.000000000E+00 2.668231201E+02 -1.000000000E+00 -9.990000000E+02 0.000000000E+00 -9.990000000E+02
3.740123510E-01 9.143999815E-01 2.776533365E-03 -1.884997040E-01 3.402753906E+02 0.000000000E+00 2.668205872E+02 -1.000000000E+00 -9.990000000E+02 0.000000000E+00 -9.990000000E+02
3.740123212E-01 9.143999815E-01 2.776536392E-03 -1.884997040E-01 3.402753906E+02 0.000000000E+00 2.668205872E+02 -1.000000000E+00 -9.990000000E+02 0.000000000E+00 -9.990000000E+02
3.714697957E-01 9.143999815E-01 3.203731962E-03 -1.928206235E-01 3.419507141E+02 0.000000000E+00 2.668180542E+02 -1.000000000E+00 -9.990000000E+02 0.000000000E+00 -9.990000000E+02
3.714697659E-01 9.143999815E-01 3.203734988E-03 -1.928206235E-01 3.419507141E+02 0.000000000E+00 2.668180542E+02 -1.000000000E+00 -9.990000000E+02 0.000000000E+00 -9.990000000E+02
3.689269125E-01 9.143999815E-01 3.629022976E-03 -1.971797347E-01 3.436092224E+02 0.000000000E+00 2.668154907E+02 -1.000000000E+00 -9.990000000E+02 0.000000000E+00 -9.990000000E+02
3.689268827E-01 9.143999815E-01 3.629026003E-03 -1.971797347E-01 3.436092224E+02 0.000000000E+00 2.668154907E+02 -1.000000000E+00 -9.990000000E+02 0.000000000E+00 -9.990000000E+02
3.663837612E-01 9.143999815E-01 4.052697681E-03 -2.015868872E-01 3.452490234E+02 0.000000000E+00 2.668128662E+02 -1.000000000E+00 -9.990000000E+02 0.000000000E+00 -9.990000000E+02
3.663837314E-01 9.143999815E-01 4.052700941E-03 -2.015868872E-01 3.452490234E+02 0.000000000E+00 2.668128662E+02 -1.000000000E+00 -9.990000000E+02 0.000000000E+00 -9.990000000E+02
3.638403416E-01 9.143999815E-01 4.474746529E-03 -2.059583068E-01 3.468489990E+02 0.000000000E+00 2.668103027E+02 -1.000000000E+00 -9.990000000E+02 0.000000000E+00 -9.990000000E+02
3.638403118E-01 9.143999815E-01 4.474749789E-03 -2.059583068E-01 3.468489990E+02 0.000000000E+00 2.668103027E+02 -1.000000000E+00 -9.990000000E+02 0.000000000E+00 -9.990000000E+02
3.612965941E-01 9.143999815E-01 4.894873593E-03 -2.102952451E-01 3.483759460E+02 0.000000000E+00 2.668077393E+02 -1.000000000E+00 -9.990000000E+02 0.000000000E+00 -9.990000000E+02
3.612965643E-01 9.143999815E-01 4.894876853E-03 -2.102952451E-01 3.483759460E+02 0.000000000E+00 2.668077393E+02 -1.000000000E+00 -9.990000000E+02 0.000000000E+00 -9.990000000E+02
3.587525785E-01 9.143999815E-01 5.313317291E-03 -2.146592885E-01 3.498456421E+02 0.000000000E+00 2.668051758E+02 -1.000000000E+00 -9.990000000E+02 0.000000000E+00 -9.990000000E+02
3.587525487E-01 9.143999815E-01 5.313320551E-03 -2.146592885E-01 3.498456421E+02 0.000000000E+00 2.668051758E+02 -1.000000000E+00 -9.990000000E+02 0.000000000E+00 -9.990000000E+02
3.562082946E-01 9.143999815E-01 5.730123725E-03 -2.190380991E-01 3.512815857E+02 0.000000000E+00 2.668025513E+02 -1.000000000E+00 -9.990000000E+02 0.000000000E+00 -9.990000000E+02
3.562082648E-01 9.143999815E-01 5.730126984E-03 -2.190380991E-01 3.512815857E+02 0.000000000E+00 2.668025513E+02 -1.000000000E+00 -9.990000000E+02 0.000000000E+00 -9.990000000E+02
3.536637127E-01 9.143999815E-01 6.145041902E-03 -2.234144509E-01 3.527117310E+02 0.000000000E+00 2.667999878E+02 -1.000000000E+00 -9.990000000E+02 0.000000000E+00 -9.990000000E+02
3.536636829E-01 9.143999815E-01 6.145044696E-03 -2.234144509E-01 3.527117310E+02 0.000000000E+00 2.667999878E+02 -1.000000000E+00 -9.990000000E+02 0.000000000E+00 -9.990000000E+02
3.511188328E-01 9.143999815E-01 6.558203604E-03 -2.277994305E-01 3.541836243E+02 0.000000000E+00 2.667974243E+02 -1.000000000E+00 -9.990000000E+02 0.000000000E+00 -9.990000000E+02
3.511188030E-01 9.143999815E-01 6.558206398E-03 -2.277994305E-01 3.541836243E+02 0.000000000E+00 2.667974243E+02 -1.000000000E+00 -9.990000000E+02 0.000000000E+00 -9.990000000E+02
3.485736251E-01 9.143999815E-01 6.969499402E-03 -2.321893275E-01 3.557308044E+02 0.000000000E+00 2.667947998E+02 -1.000000000E+00 -9.990000000E+02 0.000000000E+00 -9.990000000E+02
3.485735953E-01 9.143999815E-01 6.969502196E-03 -2.321893275E-01 3.557308044E+02 0.000000000E+00 2.667947998E+02 -1.000000000E+00 -9.990000000E+02 0.000000000E+00 -9.990000000E+02