#+++++++++++++++++++++++++++++++++++++++++++++++++++++++++++++++++++++++++++++++++++++++++++++++++++++++++++++++++++++++++++++++++
#
#   IPW-3 Final Ice Shape DATA SUBMITTAL FORM for Test Case ###, May 4th 2026
#
# 
#
#
#       NOMENCLATURE:
#                  X [m]:  X-coordinate of the surface (clean for reference)
#                  Y [m]:  Y-coordinate of the surface (clean for reference)
#                  Z [m]:  Z-coordinate of the surface (clean for reference)
#             X_ICED [m]:  X-coordinate of the final ice surface 
#             Y_ICED [m]:  Y-coordinate of the final ice surface
#             Z_ICED [m]:  Z-coordinate of the final ice surface
#
#                XXX:   Participant ID (assigned by IPW committee); e.g., 001, 020, 147
#                ###:   Test case name (NACA0012_AE3932, NACA0012_3933, ONERAM6)
#            DATASET:   Sequential number, should start at 01 for each participant 
#
#    E.g. TITLE field could be: 001_NACA0012_AE3932_03 for the third submission by participant 1 for the case NACA0012_AE3932
#
#
#    FLOW CONDITIONS:
#                        AOA : 4.0 deg
#                 Mach Number: 0.3114 [-]
#                         MAC: 0.5334 [m]
#             Reynolds Number: 3.8441 million (based on MAC)
#             Freestream Temp: XXX [K]
#              Reference area: 0.97548 [m2]
#     Moment Reference Center: 0.13335, 0, 0 [m] (X, Y, Z)
#
#              NOTES: 1. Please use at least 5 decimal places in the numerical values
#                     2. If data are NOT provided, please fill data fields with a numerical value of "-999" 
#
#+++++++++++++++++++++++++++++++++++++++++++++++++++++++++++++++++++++++++++++++++++++++++++++++++++++++++++++++++++++++++++++++++

AUXDATA NUM_LAYERS  = "insert the number of total ice layers"
AUXDATA DATA_TYPE   = "insert the ice shape type SLICE or MCCS"
                                              
VARIABLES = "X" "Y" "Z" "X_ICED" "Y_ICED" "Z_ICED"

# The following section is for final ice shape data:
ZONE T="SLICE_Y_0p9144_BINS03_KS_1mm_SINGLE_LAYER_ICE_SHAPE"
0.53243 0.91440 -0.02791 0.53243 0.91440 -0.02791 
0.53242 0.91440 -0.02802 0.53242 0.91440 -0.02802 
0.53241 0.91440 -0.02813 0.53241 0.91440 -0.02813 
0.53240 0.91440 -0.02824 0.53240 0.91440 -0.02824 
0.53239 0.91440 -0.02835 0.53239 0.91440 -0.02835 
0.53239 0.91440 -0.02846 0.53239 0.91440 -0.02846 
0.53238 0.91440 -0.02858 0.53238 0.91440 -0.02858 
0.53202 0.91440 -0.02860 0.53202 0.91440 -0.02860 
0.53144 0.91440 -0.02864 0.53144 0.91440 -0.02864 
0.53052 0.91440 -0.02871 0.53052 0.91440 -0.02871 
0.52905 0.91440 -0.02881 0.52905 0.91440 -0.02881 
0.52669 0.91440 -0.02897 0.52669 0.91440 -0.02897 
0.52292 0.91440 -0.02922 0.52292 0.91440 -0.02922 
0.51916 0.91440 -0.02947 0.51916 0.91440 -0.02947 
0.51540 0.91440 -0.02972 0.51540 0.91440 -0.02972 
0.51164 0.91440 -0.02996 0.51164 0.91440 -0.02996 
0.50788 0.91440 -0.03019 0.50788 0.91440 -0.03019 
0.50412 0.91440 -0.03042 0.50412 0.91440 -0.03042 
0.50036 0.91440 -0.03065 0.50036 0.91440 -0.03065 
0.49660 0.91440 -0.03088 0.49660 0.91440 -0.03088 
0.49284 0.91440 -0.03110 0.49284 0.91440 -0.03110 
0.48907 0.91440 -0.03131 0.48907 0.91440 -0.03131 
0.48531 0.91440 -0.03152 0.48531 0.91440 -0.03152 
0.48155 0.91440 -0.03173 0.48155 0.91440 -0.03173 
0.47779 0.91440 -0.03194 0.47779 0.91440 -0.03194 
0.47403 0.91440 -0.03214 0.47403 0.91440 -0.03214 
0.47027 0.91440 -0.03233 0.47027 0.91440 -0.03233 
0.46650 0.91440 -0.03253 0.46650 0.91440 -0.03253 
0.46274 0.91440 -0.03272 0.46274 0.91440 -0.03272 
0.45898 0.91440 -0.03290 0.45898 0.91440 -0.03290 
0.45521 0.91440 -0.03309 0.45521 0.91440 -0.03309 
0.45145 0.91440 -0.03327 0.45145 0.91440 -0.03327 
0.44769 0.91440 -0.03344 0.44769 0.91440 -0.03344 
0.44392 0.91440 -0.03361 0.44392 0.91440 -0.03361 
0.44016 0.91440 -0.03378 0.44016 0.91440 -0.03378 
0.43640 0.91440 -0.03395 0.43640 0.91440 -0.03395 
0.43263 0.91440 -0.03411 0.43263 0.91440 -0.03411 
0.42887 0.91440 -0.03426 0.42887 0.91440 -0.03426 
0.42510 0.91440 -0.03442 0.42510 0.91440 -0.03442 
0.42134 0.91440 -0.03457 0.42134 0.91440 -0.03457 
0.41758 0.91440 -0.03472 0.41758 0.91440 -0.03472 
0.41381 0.91440 -0.03486 0.41381 0.91440 -0.03486 
0.41005 0.91440 -0.03500 0.41005 0.91440 -0.03500 
0.40628 0.91440 -0.03514 0.40628 0.91440 -0.03514 
0.40252 0.91440 -0.03527 0.40252 0.91440 -0.03527 
0.39875 0.91440 -0.03540 0.39875 0.91440 -0.03540 
0.39499 0.91440 -0.03553 0.39499 0.91440 -0.03553 
0.39122 0.91440 -0.03565 0.39122 0.91440 -0.03565 
0.38746 0.91440 -0.03577 0.38746 0.91440 -0.03577 
0.38369 0.91440 -0.03589 0.38369 0.91440 -0.03589 
0.37992 0.91440 -0.03600 0.37992 0.91440 -0.03600 
0.37616 0.91440 -0.03611 0.37616 0.91440 -0.03611 
0.37239 0.91440 -0.03621 0.37239 0.91440 -0.03621 
0.36863 0.91440 -0.03631 0.36863 0.91440 -0.03631 
0.36486 0.91440 -0.03641 0.36486 0.91440 -0.03641 
0.36109 0.91440 -0.03651 0.36109 0.91440 -0.03651 
0.35733 0.91440 -0.03660 0.35733 0.91440 -0.03660 
0.35356 0.91440 -0.03668 0.35356 0.91440 -0.03668 
0.34979 0.91440 -0.03677 0.34979 0.91440 -0.03677 
0.34603 0.91440 -0.03684 0.34603 0.91440 -0.03684 
0.34226 0.91440 -0.03692 0.34226 0.91440 -0.03692 
0.33849 0.91440 -0.03699 0.33849 0.91440 -0.03699 
0.33473 0.91440 -0.03706 0.33473 0.91440 -0.03706 
0.33096 0.91440 -0.03712 0.33096 0.91440 -0.03712 
0.32719 0.91440 -0.03718 0.32719 0.91440 -0.03718 
0.32343 0.91440 -0.03723 0.32343 0.91440 -0.03723 
0.31966 0.91440 -0.03728 0.31966 0.91440 -0.03728 
0.31589 0.91440 -0.03733 0.31589 0.91440 -0.03733 
0.31213 0.91440 -0.03737 0.31213 0.91440 -0.03737 
0.30836 0.91440 -0.03741 0.30836 0.91440 -0.03741 
0.30459 0.91440 -0.03744 0.30459 0.91440 -0.03744 
0.30082 0.91440 -0.03747 0.30082 0.91440 -0.03747 
0.29706 0.91440 -0.03749 0.29706 0.91440 -0.03749 
0.29329 0.91440 -0.03751 0.29329 0.91440 -0.03751 
0.28952 0.91440 -0.03752 0.28952 0.91440 -0.03752 
0.28575 0.91440 -0.03753 0.28575 0.91440 -0.03753 
0.28199 0.91440 -0.03753 0.28199 0.91440 -0.03753 
0.27822 0.91440 -0.03753 0.27822 0.91440 -0.03753 
0.27445 0.91440 -0.03752 0.27445 0.91440 -0.03752 
0.27068 0.91440 -0.03751 0.27068 0.91440 -0.03751 
0.26692 0.91440 -0.03749 0.26692 0.91440 -0.03749 
0.26315 0.91440 -0.03746 0.26315 0.91440 -0.03746 
0.25938 0.91440 -0.03743 0.25938 0.91440 -0.03743 
0.25562 0.91440 -0.03740 0.25562 0.91440 -0.03740 
0.25185 0.91440 -0.03735 0.25185 0.91440 -0.03735 
0.24808 0.91440 -0.03730 0.24808 0.91440 -0.03730 
0.24431 0.91440 -0.03725 0.24431 0.91440 -0.03725 
0.24055 0.91440 -0.03719 0.24055 0.91440 -0.03719 
0.23678 0.91440 -0.03712 0.23678 0.91440 -0.03712 
0.23301 0.91440 -0.03704 0.23301 0.91440 -0.03704 
0.22925 0.91440 -0.03696 0.22925 0.91440 -0.03696 
0.22548 0.91440 -0.03687 0.22548 0.91440 -0.03687 
0.22172 0.91440 -0.03678 0.22172 0.91440 -0.03678 
0.21795 0.91440 -0.03667 0.21795 0.91440 -0.03667 
0.21418 0.91440 -0.03656 0.21418 0.91440 -0.03656 
0.21042 0.91440 -0.03644 0.21042 0.91440 -0.03644 
0.20665 0.91440 -0.03631 0.20665 0.91440 -0.03631 
0.20289 0.91440 -0.03618 0.20289 0.91440 -0.03618 
0.19912 0.91440 -0.03603 0.19912 0.91440 -0.03603 
0.19536 0.91440 -0.03588 0.19536 0.91440 -0.03588 
0.19160 0.91440 -0.03571 0.19160 0.91440 -0.03571 
0.18783 0.91440 -0.03554 0.18783 0.91440 -0.03554 
0.18407 0.91440 -0.03536 0.18407 0.91440 -0.03536 
0.18031 0.91440 -0.03517 0.18031 0.91440 -0.03517 
0.17654 0.91440 -0.03497 0.17654 0.91440 -0.03497 
0.17278 0.91440 -0.03475 0.17278 0.91440 -0.03475 
0.16902 0.91440 -0.03453 0.16902 0.91440 -0.03453 
0.16526 0.91440 -0.03430 0.16526 0.91440 -0.03430 
0.16150 0.91440 -0.03405 0.16150 0.91440 -0.03405 
0.15774 0.91440 -0.03380 0.15774 0.91440 -0.03380 
0.15399 0.91440 -0.03353 0.15399 0.91440 -0.03353 
0.15023 0.91440 -0.03325 0.15023 0.91440 -0.03325 
0.14647 0.91440 -0.03295 0.14647 0.91440 -0.03295 
0.14272 0.91440 -0.03265 0.14272 0.91440 -0.03265 
0.13896 0.91440 -0.03233 0.13896 0.91440 -0.03233 
0.13521 0.91440 -0.03199 0.13521 0.91440 -0.03199 
0.13146 0.91440 -0.03164 0.13146 0.91440 -0.03165 
0.12771 0.91440 -0.03128 0.12771 0.91440 -0.03132 
0.12396 0.91440 -0.03090 0.12395 0.91440 -0.03098 
0.12034 0.91440 -0.03052 0.12033 0.91440 -0.03064 
0.11690 0.91440 -0.03014 0.11688 0.91440 -0.03030 
0.11362 0.91440 -0.02977 0.11359 0.91440 -0.02996 
0.11049 0.91440 -0.02940 0.11047 0.91440 -0.02963 
0.10752 0.91440 -0.02904 0.10749 0.91440 -0.02931 
0.10469 0.91440 -0.02868 0.10465 0.91440 -0.02899 
0.10200 0.91440 -0.02833 0.10195 0.91440 -0.02868 
0.09943 0.91440 -0.02799 0.09938 0.91440 -0.02837 
0.09699 0.91440 -0.02765 0.09694 0.91440 -0.02807 
0.09467 0.91440 -0.02732 0.09461 0.91440 -0.02778 
0.09246 0.91440 -0.02700 0.09239 0.91440 -0.02749 
0.09035 0.91440 -0.02669 0.09028 0.91440 -0.02722 
0.08835 0.91440 -0.02638 0.08843 0.91440 -0.02696 
0.08644 0.91440 -0.02609 0.08726 0.91440 -0.02846 
0.08454 0.91440 -0.02578 0.08489 0.91440 -0.03011 
0.08263 0.91440 -0.02548 0.08212 0.91440 -0.03014 
0.08073 0.91440 -0.02516 0.08004 0.91440 -0.03015 
0.07883 0.91440 -0.02484 0.07800 0.91440 -0.02986 
0.07693 0.91440 -0.02451 0.07606 0.91440 -0.02957 
0.07503 0.91440 -0.02417 0.07413 0.91440 -0.02924 
0.07313 0.91440 -0.02383 0.07221 0.91440 -0.02890 
0.07123 0.91440 -0.02347 0.07029 0.91440 -0.02855 
0.06934 0.91440 -0.02311 0.06837 0.91440 -0.02820 
0.06744 0.91440 -0.02275 0.06645 0.91440 -0.02783 
0.06555 0.91440 -0.02237 0.06453 0.91440 -0.02745 
0.06366 0.91440 -0.02198 0.06261 0.91440 -0.02706 
0.06177 0.91440 -0.02159 0.06070 0.91440 -0.02666 
0.05988 0.91440 -0.02119 0.05879 0.91440 -0.02625 
0.05800 0.91440 -0.02077 0.05688 0.91440 -0.02583 
0.05612 0.91440 -0.02035 0.05497 0.91440 -0.02540 
0.05424 0.91440 -0.01992 0.05306 0.91440 -0.02496 
0.05236 0.91440 -0.01947 0.05116 0.91440 -0.02452 
0.05049 0.91440 -0.01902 0.04925 0.91440 -0.02406 
0.04861 0.91440 -0.01855 0.04735 0.91440 -0.02359 
0.04674 0.91440 -0.01807 0.04544 0.91440 -0.02311 
0.04488 0.91440 -0.01758 0.04354 0.91440 -0.02261 
0.04302 0.91440 -0.01707 0.04163 0.91440 -0.02209 
0.04116 0.91440 -0.01656 0.03973 0.91440 -0.02155 
0.03930 0.91440 -0.01602 0.03783 0.91440 -0.02099 
0.03745 0.91440 -0.01547 0.03594 0.91440 -0.02041 
0.03561 0.91440 -0.01491 0.03405 0.91440 -0.01982 
0.03377 0.91440 -0.01433 0.03217 0.91440 -0.01920 
0.03194 0.91440 -0.01373 0.03029 0.91440 -0.01855 
0.03011 0.91440 -0.01311 0.02841 0.91440 -0.01788 
0.02829 0.91440 -0.01247 0.02654 0.91440 -0.01717 
0.02648 0.91440 -0.01180 0.02467 0.91440 -0.01643 
0.02468 0.91440 -0.01111 0.02282 0.91440 -0.01565 
0.02288 0.91440 -0.01040 0.02098 0.91440 -0.01483 
0.02110 0.91440 -0.00966 0.01914 0.91440 -0.01397 
0.01933 0.91440 -0.00889 0.01732 0.91440 -0.01306 
0.01758 0.91440 -0.00808 0.01552 0.91440 -0.01209 
0.01585 0.91440 -0.00724 0.01374 0.91440 -0.01105 
0.01413 0.91440 -0.00635 0.01199 0.91440 -0.00995 
0.01244 0.91440 -0.00542 0.01028 0.91440 -0.00877 
0.01078 0.91440 -0.00444 0.00862 0.91440 -0.00751 
0.00916 0.91440 -0.00339 0.00701 0.91440 -0.00614 
0.00759 0.91440 -0.00228 0.00548 0.91440 -0.00468 
0.00609 0.91440 -0.00109 0.00406 0.91440 -0.00315 
0.00480 0.91440 0.00006 0.00286 0.91440 -0.00167 
0.00370 0.91440 0.00119 0.00185 0.91440 -0.00027 
0.00279 0.91440 0.00228 0.00099 0.91440 0.00102 
0.00203 0.91440 0.00334 0.00026 0.91440 0.00217 
0.00143 0.91440 0.00437 -0.00044 0.91440 0.00306 
0.00097 0.91440 0.00538 -0.00120 0.91440 0.00368 
0.00063 0.91440 0.00637 -0.00198 0.91440 0.00411 
0.00042 0.91440 0.00735 -0.00288 0.91440 0.00457 
0.00031 0.91440 0.00834 -0.00398 0.91440 0.00528 
0.00032 0.91440 0.00930 -0.00523 0.91440 0.00635 
0.00045 0.91440 0.01025 -0.00652 0.91440 0.00785 
0.00068 0.91440 0.01121 -0.00767 0.91440 0.00987 
0.00103 0.91440 0.01215 -0.00849 0.91440 0.01238 
0.00150 0.91440 0.01308 -0.00872 0.91440 0.01522 
0.00209 0.91440 0.01401 -0.00832 0.91440 0.01845 
0.00283 0.91440 0.01495 -0.00686 0.91440 0.02150 
0.00371 0.91440 0.01589 -0.00438 0.91440 0.02473 
0.00475 0.91440 0.01683 -0.00074 0.91440 0.02653 
0.00599 0.91440 0.01779 0.00464 0.91440 0.02757 
0.00742 0.91440 0.01875 0.01016 0.91440 0.02397 
0.00905 0.91440 0.01971 0.00970 0.91440 0.02155 
0.01075 0.91440 0.02060 0.01037 0.91440 0.02176 
0.01249 0.91440 0.02141 0.01226 0.91440 0.02210 
0.01426 0.91440 0.02215 0.01412 0.91440 0.02258 
0.01605 0.91440 0.02284 0.01599 0.91440 0.02303 
0.01786 0.91440 0.02348 0.01785 0.91440 0.02352 
0.01969 0.91440 0.02407 0.01969 0.91440 0.02407 
0.02153 0.91440 0.02462 0.02153 0.91440 0.02462 
0.02338 0.91440 0.02514 0.02338 0.91440 0.02514 
0.02523 0.91440 0.02563 0.02523 0.91440 0.02563 
0.02710 0.91440 0.02609 0.02710 0.91440 0.02609 
0.02897 0.91440 0.02652 0.02897 0.91440 0.02652 
0.03085 0.91440 0.02692 0.03085 0.91440 0.02692 
0.03273 0.91440 0.02730 0.03273 0.91440 0.02730 
0.03461 0.91440 0.02767 0.03461 0.91440 0.02767 
0.03650 0.91440 0.02801 0.03650 0.91440 0.02801 
0.03840 0.91440 0.02833 0.03840 0.91440 0.02833 
0.04029 0.91440 0.02863 0.04029 0.91440 0.02863 
0.04219 0.91440 0.02892 0.04219 0.91440 0.02892 
0.04409 0.91440 0.02919 0.04409 0.91440 0.02919 
0.04599 0.91440 0.02944 0.04599 0.91440 0.02944 
0.04790 0.91440 0.02969 0.04790 0.91440 0.02969 
0.04980 0.91440 0.02991 0.04980 0.91440 0.02991 
0.05171 0.91440 0.03013 0.05171 0.91440 0.03013 
0.05362 0.91440 0.03033 0.05362 0.91440 0.03033 
0.05553 0.91440 0.03052 0.05553 0.91440 0.03052 
0.05744 0.91440 0.03070 0.05744 0.91440 0.03070 
0.05936 0.91440 0.03087 0.05936 0.91440 0.03087 
0.06127 0.91440 0.03103 0.06127 0.91440 0.03103 
0.06318 0.91440 0.03118 0.06318 0.91440 0.03118 
0.06510 0.91440 0.03132 0.06510 0.91440 0.03132 
0.06701 0.91440 0.03144 0.06701 0.91440 0.03144 
0.06893 0.91440 0.03156 0.06893 0.91440 0.03156 
0.07085 0.91440 0.03167 0.07085 0.91440 0.03167 
0.07276 0.91440 0.03178 0.07276 0.91440 0.03178 
0.07468 0.91440 0.03187 0.07468 0.91440 0.03187 
0.07660 0.91440 0.03196 0.07660 0.91440 0.03196 
0.07852 0.91440 0.03204 0.07852 0.91440 0.03204 
0.08044 0.91440 0.03211 0.08044 0.91440 0.03211 
0.08235 0.91440 0.03217 0.08235 0.91440 0.03217 
0.08427 0.91440 0.03223 0.08427 0.91440 0.03223 
0.08619 0.91440 0.03228 0.08619 0.91440 0.03228 
0.08811 0.91440 0.03232 0.08811 0.91440 0.03232 
0.09003 0.91440 0.03235 0.09003 0.91440 0.03235 
0.09189 0.91440 0.03238 0.09189 0.91440 0.03238 
0.09383 0.91440 0.03241 0.09383 0.91440 0.03241 
0.09588 0.91440 0.03242 0.09588 0.91440 0.03242 
0.09802 0.91440 0.03244 0.09802 0.91440 0.03244 
0.10028 0.91440 0.03244 0.10028 0.91440 0.03244 
0.10264 0.91440 0.03244 0.10264 0.91440 0.03244 
0.10513 0.91440 0.03243 0.10513 0.91440 0.03243 
0.10774 0.91440 0.03240 0.10774 0.91440 0.03240 
0.11048 0.91440 0.03237 0.11048 0.91440 0.03237 
0.11335 0.91440 0.03232 0.11335 0.91440 0.03232 
0.11637 0.91440 0.03226 0.11637 0.91440 0.03226 
0.11954 0.91440 0.03218 0.11954 0.91440 0.03218 
0.12287 0.91440 0.03209 0.12287 0.91440 0.03209 
0.12636 0.91440 0.03198 0.12636 0.91440 0.03198 
0.13003 0.91440 0.03184 0.13003 0.91440 0.03184 
0.13382 0.91440 0.03169 0.13382 0.91440 0.03169 
0.13760 0.91440 0.03152 0.13760 0.91440 0.03152 
0.14138 0.91440 0.03134 0.14138 0.91440 0.03134 
0.14517 0.91440 0.03114 0.14517 0.91440 0.03114 
0.14895 0.91440 0.03092 0.14895 0.91440 0.03092 
0.15273 0.91440 0.03070 0.15273 0.91440 0.03070 
0.15651 0.91440 0.03046 0.15651 0.91440 0.03046 
0.16029 0.91440 0.03021 0.16029 0.91440 0.03021 
0.16406 0.91440 0.02994 0.16406 0.91440 0.02994 
0.16784 0.91440 0.02967 0.16784 0.91440 0.02967 
0.17162 0.91440 0.02938 0.17162 0.91440 0.02938 
0.17539 0.91440 0.02908 0.17539 0.91440 0.02908 
0.17917 0.91440 0.02877 0.17917 0.91440 0.02877 
0.18294 0.91440 0.02845 0.18294 0.91440 0.02845 
0.18671 0.91440 0.02812 0.18671 0.91440 0.02812 
0.19049 0.91440 0.02778 0.19049 0.91440 0.02778 
0.19426 0.91440 0.02742 0.19426 0.91440 0.02742 
0.19803 0.91440 0.02706 0.19803 0.91440 0.02706 
0.20180 0.91440 0.02670 0.20180 0.91440 0.02670 
0.20557 0.91440 0.02632 0.20557 0.91440 0.02632 
0.20933 0.91440 0.02593 0.20933 0.91440 0.02593 
0.21310 0.91440 0.02553 0.21310 0.91440 0.02553 
0.21686 0.91440 0.02513 0.21686 0.91440 0.02513 
0.22063 0.91440 0.02472 0.22063 0.91440 0.02472 
0.22439 0.91440 0.02430 0.22439 0.91440 0.02430 
0.22816 0.91440 0.02387 0.22816 0.91440 0.02387 
0.23192 0.91440 0.02344 0.23192 0.91440 0.02344 
0.23568 0.91440 0.02299 0.23568 0.91440 0.02299 
0.23944 0.91440 0.02254 0.23944 0.91440 0.02254 
0.24320 0.91440 0.02209 0.24320 0.91440 0.02209 
0.24696 0.91440 0.02163 0.24696 0.91440 0.02163 
0.25072 0.91440 0.02116 0.25072 0.91440 0.02116 
0.25447 0.91440 0.02068 0.25447 0.91440 0.02068 
0.25823 0.91440 0.02020 0.25823 0.91440 0.02020 
0.26199 0.91440 0.01971 0.26199 0.91440 0.01971 
0.26574 0.91440 0.01921 0.26574 0.91440 0.01921 
0.26950 0.91440 0.01871 0.26950 0.91440 0.01871 
0.27325 0.91440 0.01821 0.27325 0.91440 0.01821 
0.27700 0.91440 0.01770 0.27700 0.91440 0.01770 
0.28075 0.91440 0.01718 0.28075 0.91440 0.01718 
0.28450 0.91440 0.01666 0.28450 0.91440 0.01666 
0.28825 0.91440 0.01613 0.28825 0.91440 0.01613 
0.29200 0.91440 0.01559 0.29200 0.91440 0.01559 
0.29575 0.91440 0.01506 0.29575 0.91440 0.01506 
0.29950 0.91440 0.01451 0.29950 0.91440 0.01451 
0.30325 0.91440 0.01396 0.30325 0.91440 0.01396 
0.30699 0.91440 0.01341 0.30699 0.91440 0.01341 
0.31074 0.91440 0.01285 0.31074 0.91440 0.01285 
0.31449 0.91440 0.01229 0.31449 0.91440 0.01229 
0.31823 0.91440 0.01172 0.31823 0.91440 0.01172 
0.32197 0.91440 0.01115 0.32197 0.91440 0.01115 
0.32572 0.91440 0.01058 0.32572 0.91440 0.01058 
0.32946 0.91440 0.01000 0.32946 0.91440 0.01000 
0.33320 0.91440 0.00941 0.33320 0.91440 0.00941 
0.33694 0.91440 0.00882 0.33694 0.91440 0.00882 
0.34068 0.91440 0.00823 0.34068 0.91440 0.00823 
0.34442 0.91440 0.00764 0.34442 0.91440 0.00764 
0.34816 0.91440 0.00704 0.34816 0.91440 0.00704 
0.35190 0.91440 0.00643 0.35190 0.91440 0.00643 
0.35564 0.91440 0.00582 0.35564 0.91440 0.00582 
0.35938 0.91440 0.00521 0.35938 0.91440 0.00521 
0.36311 0.91440 0.00459 0.36311 0.91440 0.00459 
0.36685 0.91440 0.00397 0.36685 0.91440 0.00397 
0.37059 0.91440 0.00335 0.37059 0.91440 0.00335 
0.37432 0.91440 0.00272 0.37432 0.91440 0.00272 
0.37806 0.91440 0.00209 0.37806 0.91440 0.00209 
0.38179 0.91440 0.00146 0.38179 0.91440 0.00146 
0.38552 0.91440 0.00082 0.38552 0.91440 0.00082 
0.38926 0.91440 0.00018 0.38926 0.91440 0.00018 
0.39299 0.91440 -0.00047 0.39299 0.91440 -0.00047 
0.39672 0.91440 -0.00111 0.39672 0.91440 -0.00111 
0.40045 0.91440 -0.00177 0.40045 0.91440 -0.00177 
0.40418 0.91440 -0.00242 0.40418 0.91440 -0.00242 
0.40791 0.91440 -0.00308 0.40791 0.91440 -0.00308 
0.41164 0.91440 -0.00374 0.41164 0.91440 -0.00374 
0.41537 0.91440 -0.00441 0.41537 0.91440 -0.00441 
0.41909 0.91440 -0.00508 0.41909 0.91440 -0.00508 
0.42282 0.91440 -0.00575 0.42282 0.91440 -0.00575 
0.42655 0.91440 -0.00643 0.42655 0.91440 -0.00643 
0.43027 0.91440 -0.00711 0.43027 0.91440 -0.00711 
0.43400 0.91440 -0.00779 0.43400 0.91440 -0.00779 
0.43772 0.91440 -0.00848 0.43772 0.91440 -0.00848 
0.44145 0.91440 -0.00917 0.44145 0.91440 -0.00917 
0.44517 0.91440 -0.00986 0.44517 0.91440 -0.00986 
0.44889 0.91440 -0.01056 0.44889 0.91440 -0.01056 
0.45261 0.91440 -0.01126 0.45261 0.91440 -0.01126 
0.45634 0.91440 -0.01196 0.45634 0.91440 -0.01196 
0.46006 0.91440 -0.01267 0.46006 0.91440 -0.01267 
0.46378 0.91440 -0.01338 0.46378 0.91440 -0.01338 
0.46749 0.91440 -0.01410 0.46749 0.91440 -0.01410 
0.47121 0.91440 -0.01482 0.47121 0.91440 -0.01482 
0.47493 0.91440 -0.01554 0.47493 0.91440 -0.01554 
0.47865 0.91440 -0.01627 0.47865 0.91440 -0.01627 
0.48236 0.91440 -0.01699 0.48236 0.91440 -0.01699 
0.48608 0.91440 -0.01773 0.48608 0.91440 -0.01773 
0.48979 0.91440 -0.01847 0.48979 0.91440 -0.01847 
0.49351 0.91440 -0.01921 0.49351 0.91440 -0.01921 
0.49722 0.91440 -0.01995 0.49722 0.91440 -0.01995 
0.50093 0.91440 -0.02070 0.50093 0.91440 -0.02070 
0.50465 0.91440 -0.02145 0.50465 0.91440 -0.02145 
0.50836 0.91440 -0.02221 0.50836 0.91440 -0.02221 
0.51207 0.91440 -0.02297 0.51207 0.91440 -0.02297 
0.51578 0.91440 -0.02374 0.51578 0.91440 -0.02374 
0.51948 0.91440 -0.02451 0.51948 0.91440 -0.02451 
0.52319 0.91440 -0.02528 0.52319 0.91440 -0.02528 
0.52689 0.91440 -0.02606 0.52689 0.91440 -0.02606 
0.52921 0.91440 -0.02654 0.52921 0.91440 -0.02654 
0.53065 0.91440 -0.02685 0.53065 0.91440 -0.02685 
0.53156 0.91440 -0.02704 0.53156 0.91440 -0.02704 
0.53212 0.91440 -0.02716 0.53212 0.91440 -0.02716 
0.53247 0.91440 -0.02724 0.53247 0.91440 -0.02724 
0.53246 0.91440 -0.02735 0.53246 0.91440 -0.02735 
0.53246 0.91440 -0.02746 0.53246 0.91440 -0.02746 
0.53245 0.91440 -0.02757 0.53245 0.91440 -0.02757 
0.53244 0.91440 -0.02768 0.53244 0.91440 -0.02768 
0.53243 0.91440 -0.02779 0.53243 0.91440 -0.02779 
0.53243 0.91440 -0.02791 0.53243 0.91440 -0.02791 



ZONE T="SLICE_Y_0p9144_BINS07_KS_1mm_SINGLE_LAYER_ICE_SHAPE"
0.53243 0.91440 -0.02791 0.53243 0.91440 -0.02791 
0.53242 0.91440 -0.02802 0.53242 0.91440 -0.02802 
0.53241 0.91440 -0.02813 0.53241 0.91440 -0.02813 
0.53240 0.91440 -0.02824 0.53240 0.91440 -0.02824 
0.53239 0.91440 -0.02835 0.53239 0.91440 -0.02835 
0.53239 0.91440 -0.02846 0.53239 0.91440 -0.02846 
0.53238 0.91440 -0.02858 0.53238 0.91440 -0.02858 
0.53202 0.91440 -0.02860 0.53202 0.91440 -0.02860 
0.53144 0.91440 -0.02864 0.53144 0.91440 -0.02864 
0.53052 0.91440 -0.02871 0.53052 0.91440 -0.02871 
0.52905 0.91440 -0.02881 0.52905 0.91440 -0.02881 
0.52669 0.91440 -0.02897 0.52669 0.91440 -0.02897 
0.52292 0.91440 -0.02922 0.52292 0.91440 -0.02922 
0.51916 0.91440 -0.02947 0.51916 0.91440 -0.02947 
0.51540 0.91440 -0.02972 0.51540 0.91440 -0.02972 
0.51164 0.91440 -0.02996 0.51164 0.91440 -0.02996 
0.50788 0.91440 -0.03019 0.50788 0.91440 -0.03019 
0.50412 0.91440 -0.03042 0.50412 0.91440 -0.03042 
0.50036 0.91440 -0.03065 0.50036 0.91440 -0.03065 
0.49660 0.91440 -0.03088 0.49660 0.91440 -0.03088 
0.49284 0.91440 -0.03110 0.49284 0.91440 -0.03110 
0.48907 0.91440 -0.03131 0.48907 0.91440 -0.03131 
0.48531 0.91440 -0.03152 0.48531 0.91440 -0.03152 
0.48155 0.91440 -0.03173 0.48155 0.91440 -0.03173 
0.47779 0.91440 -0.03194 0.47779 0.91440 -0.03194 
0.47403 0.91440 -0.03214 0.47403 0.91440 -0.03214 
0.47027 0.91440 -0.03233 0.47027 0.91440 -0.03233 
0.46650 0.91440 -0.03253 0.46650 0.91440 -0.03253 
0.46274 0.91440 -0.03272 0.46274 0.91440 -0.03272 
0.45898 0.91440 -0.03290 0.45898 0.91440 -0.03290 
0.45521 0.91440 -0.03309 0.45521 0.91440 -0.03309 
0.45145 0.91440 -0.03327 0.45145 0.91440 -0.03327 
0.44769 0.91440 -0.03344 0.44769 0.91440 -0.03344 
0.44392 0.91440 -0.03361 0.44392 0.91440 -0.03361 
0.44016 0.91440 -0.03378 0.44016 0.91440 -0.03378 
0.43640 0.91440 -0.03395 0.43640 0.91440 -0.03395 
0.43263 0.91440 -0.03411 0.43263 0.91440 -0.03411 
0.42887 0.91440 -0.03426 0.42887 0.91440 -0.03426 
0.42510 0.91440 -0.03442 0.42510 0.91440 -0.03442 
0.42134 0.91440 -0.03457 0.42134 0.91440 -0.03457 
0.41758 0.91440 -0.03472 0.41758 0.91440 -0.03472 
0.41381 0.91440 -0.03486 0.41381 0.91440 -0.03486 
0.41005 0.91440 -0.03500 0.41005 0.91440 -0.03500 
0.40628 0.91440 -0.03514 0.40628 0.91440 -0.03514 
0.40252 0.91440 -0.03527 0.40252 0.91440 -0.03527 
0.39875 0.91440 -0.03540 0.39875 0.91440 -0.03540 
0.39499 0.91440 -0.03553 0.39499 0.91440 -0.03553 
0.39122 0.91440 -0.03565 0.39122 0.91440 -0.03565 
0.38746 0.91440 -0.03577 0.38746 0.91440 -0.03577 
0.38369 0.91440 -0.03589 0.38369 0.91440 -0.03589 
0.37992 0.91440 -0.03600 0.37992 0.91440 -0.03600 
0.37616 0.91440 -0.03611 0.37616 0.91440 -0.03611 
0.37239 0.91440 -0.03621 0.37239 0.91440 -0.03621 
0.36863 0.91440 -0.03631 0.36863 0.91440 -0.03631 
0.36486 0.91440 -0.03641 0.36486 0.91440 -0.03641 
0.36109 0.91440 -0.03651 0.36109 0.91440 -0.03651 
0.35733 0.91440 -0.03660 0.35733 0.91440 -0.03660 
0.35356 0.91440 -0.03668 0.35356 0.91440 -0.03668 
0.34979 0.91440 -0.03677 0.34979 0.91440 -0.03677 
0.34603 0.91440 -0.03684 0.34603 0.91440 -0.03684 
0.34226 0.91440 -0.03692 0.34226 0.91440 -0.03692 
0.33849 0.91440 -0.03699 0.33849 0.91440 -0.03699 
0.33473 0.91440 -0.03706 0.33473 0.91440 -0.03706 
0.33096 0.91440 -0.03712 0.33096 0.91440 -0.03712 
0.32719 0.91440 -0.03718 0.32719 0.91440 -0.03718 
0.32343 0.91440 -0.03723 0.32343 0.91440 -0.03723 
0.31966 0.91440 -0.03728 0.31966 0.91440 -0.03728 
0.31589 0.91440 -0.03733 0.31589 0.91440 -0.03733 
0.31213 0.91440 -0.03737 0.31213 0.91440 -0.03737 
0.30836 0.91440 -0.03741 0.30836 0.91440 -0.03741 
0.30459 0.91440 -0.03744 0.30459 0.91440 -0.03744 
0.30082 0.91440 -0.03747 0.30082 0.91440 -0.03747 
0.29706 0.91440 -0.03749 0.29706 0.91440 -0.03749 
0.29329 0.91440 -0.03751 0.29329 0.91440 -0.03751 
0.28952 0.91440 -0.03752 0.28952 0.91440 -0.03752 
0.28575 0.91440 -0.03753 0.28575 0.91440 -0.03753 
0.28199 0.91440 -0.03753 0.28199 0.91440 -0.03753 
0.27822 0.91440 -0.03753 0.27822 0.91440 -0.03753 
0.27445 0.91440 -0.03752 0.27445 0.91440 -0.03752 
0.27068 0.91440 -0.03751 0.27068 0.91440 -0.03751 
0.26692 0.91440 -0.03749 0.26692 0.91440 -0.03749 
0.26315 0.91440 -0.03746 0.26315 0.91440 -0.03746 
0.25938 0.91440 -0.03743 0.25938 0.91440 -0.03743 
0.25562 0.91440 -0.03740 0.25562 0.91440 -0.03740 
0.25185 0.91440 -0.03735 0.25185 0.91440 -0.03735 
0.24808 0.91440 -0.03730 0.24808 0.91440 -0.03730 
0.24431 0.91440 -0.03725 0.24431 0.91440 -0.03725 
0.24055 0.91440 -0.03719 0.24055 0.91440 -0.03719 
0.23678 0.91440 -0.03712 0.23678 0.91440 -0.03712 
0.23301 0.91440 -0.03704 0.23301 0.91440 -0.03704 
0.22925 0.91440 -0.03696 0.22925 0.91440 -0.03696 
0.22548 0.91440 -0.03687 0.22548 0.91440 -0.03687 
0.22172 0.91440 -0.03678 0.22172 0.91440 -0.03678 
0.21795 0.91440 -0.03667 0.21795 0.91440 -0.03667 
0.21418 0.91440 -0.03656 0.21418 0.91440 -0.03656 
0.21042 0.91440 -0.03644 0.21042 0.91440 -0.03644 
0.20665 0.91440 -0.03631 0.20665 0.91440 -0.03631 
0.20289 0.91440 -0.03618 0.20289 0.91440 -0.03618 
0.19912 0.91440 -0.03603 0.19912 0.91440 -0.03603 
0.19536 0.91440 -0.03588 0.19536 0.91440 -0.03588 
0.19160 0.91440 -0.03571 0.19160 0.91440 -0.03571 
0.18783 0.91440 -0.03554 0.18783 0.91440 -0.03554 
0.18407 0.91440 -0.03536 0.18407 0.91440 -0.03536 
0.18031 0.91440 -0.03517 0.18031 0.91440 -0.03517 
0.17654 0.91440 -0.03497 0.17654 0.91440 -0.03497 
0.17278 0.91440 -0.03475 0.17278 0.91440 -0.03475 
0.16902 0.91440 -0.03453 0.16902 0.91440 -0.03453 
0.16526 0.91440 -0.03430 0.16526 0.91440 -0.03430 
0.16150 0.91440 -0.03405 0.16150 0.91440 -0.03405 
0.15774 0.91440 -0.03380 0.15774 0.91440 -0.03380 
0.15399 0.91440 -0.03353 0.15399 0.91440 -0.03353 
0.15023 0.91440 -0.03325 0.15023 0.91440 -0.03325 
0.14647 0.91440 -0.03295 0.14647 0.91440 -0.03295 
0.14272 0.91440 -0.03265 0.14272 0.91440 -0.03265 
0.13896 0.91440 -0.03233 0.13896 0.91440 -0.03233 
0.13521 0.91440 -0.03199 0.13521 0.91440 -0.03199 
0.13146 0.91440 -0.03164 0.13146 0.91440 -0.03166 
0.12771 0.91440 -0.03128 0.12771 0.91440 -0.03133 
0.12396 0.91440 -0.03090 0.12395 0.91440 -0.03099 
0.12034 0.91440 -0.03052 0.12033 0.91440 -0.03065 
0.11690 0.91440 -0.03014 0.11688 0.91440 -0.03031 
0.11362 0.91440 -0.02977 0.11359 0.91440 -0.02998 
0.11049 0.91440 -0.02940 0.11047 0.91440 -0.02965 
0.10752 0.91440 -0.02904 0.10749 0.91440 -0.02932 
0.10469 0.91440 -0.02868 0.10465 0.91440 -0.02900 
0.10200 0.91440 -0.02833 0.10195 0.91440 -0.02869 
0.09943 0.91440 -0.02799 0.09938 0.91440 -0.02838 
0.09699 0.91440 -0.02765 0.09694 0.91440 -0.02808 
0.09467 0.91440 -0.02732 0.09461 0.91440 -0.02778 
0.09246 0.91440 -0.02700 0.09239 0.91440 -0.02750 
0.09035 0.91440 -0.02669 0.09034 0.91440 -0.02724 
0.08835 0.91440 -0.02638 0.08869 0.91440 -0.02781 
0.08644 0.91440 -0.02609 0.08722 0.91440 -0.02935 
0.08454 0.91440 -0.02578 0.08453 0.91440 -0.03028 
0.08263 0.91440 -0.02548 0.08205 0.91440 -0.03027 
0.08073 0.91440 -0.02516 0.08000 0.91440 -0.03018 
0.07883 0.91440 -0.02484 0.07799 0.91440 -0.02988 
0.07693 0.91440 -0.02451 0.07606 0.91440 -0.02958 
0.07503 0.91440 -0.02417 0.07413 0.91440 -0.02926 
0.07313 0.91440 -0.02383 0.07221 0.91440 -0.02892 
0.07123 0.91440 -0.02347 0.07029 0.91440 -0.02857 
0.06934 0.91440 -0.02311 0.06837 0.91440 -0.02822 
0.06744 0.91440 -0.02275 0.06645 0.91440 -0.02785 
0.06555 0.91440 -0.02237 0.06453 0.91440 -0.02748 
0.06366 0.91440 -0.02198 0.06261 0.91440 -0.02709 
0.06177 0.91440 -0.02159 0.06070 0.91440 -0.02669 
0.05988 0.91440 -0.02119 0.05878 0.91440 -0.02628 
0.05800 0.91440 -0.02077 0.05687 0.91440 -0.02587 
0.05612 0.91440 -0.02035 0.05496 0.91440 -0.02544 
0.05424 0.91440 -0.01992 0.05305 0.91440 -0.02500 
0.05236 0.91440 -0.01947 0.05115 0.91440 -0.02455 
0.05049 0.91440 -0.01902 0.04924 0.91440 -0.02410 
0.04861 0.91440 -0.01855 0.04734 0.91440 -0.02362 
0.04674 0.91440 -0.01807 0.04543 0.91440 -0.02314 
0.04488 0.91440 -0.01758 0.04353 0.91440 -0.02264 
0.04302 0.91440 -0.01707 0.04162 0.91440 -0.02211 
0.04116 0.91440 -0.01656 0.03972 0.91440 -0.02157 
0.03930 0.91440 -0.01602 0.03782 0.91440 -0.02101 
0.03745 0.91440 -0.01547 0.03593 0.91440 -0.02043 
0.03561 0.91440 -0.01491 0.03405 0.91440 -0.01982 
0.03377 0.91440 -0.01433 0.03217 0.91440 -0.01920 
0.03194 0.91440 -0.01373 0.03029 0.91440 -0.01855 
0.03011 0.91440 -0.01311 0.02841 0.91440 -0.01787 
0.02829 0.91440 -0.01247 0.02653 0.91440 -0.01716 
0.02648 0.91440 -0.01180 0.02467 0.91440 -0.01641 
0.02468 0.91440 -0.01111 0.02282 0.91440 -0.01563 
0.02288 0.91440 -0.01040 0.02098 0.91440 -0.01481 
0.02110 0.91440 -0.00966 0.01915 0.91440 -0.01394 
0.01933 0.91440 -0.00889 0.01734 0.91440 -0.01303 
0.01758 0.91440 -0.00808 0.01554 0.91440 -0.01206 
0.01585 0.91440 -0.00724 0.01376 0.91440 -0.01103 
0.01413 0.91440 -0.00635 0.01201 0.91440 -0.00993 
0.01244 0.91440 -0.00542 0.01030 0.91440 -0.00875 
0.01078 0.91440 -0.00444 0.00863 0.91440 -0.00749 
0.00916 0.91440 -0.00339 0.00702 0.91440 -0.00612 
0.00759 0.91440 -0.00228 0.00550 0.91440 -0.00466 
0.00609 0.91440 -0.00109 0.00408 0.91440 -0.00312 
0.00480 0.91440 0.00006 0.00288 0.91440 -0.00165 