#++++++++++++++++++++++++++++++++++++++++++++++++++++++++++++++++++++++++++++++++++++++++++++++++++++++++++++++++++++
#
#   IPW-3 Ice Shape DATA SUBMITTAL FORM for Test Case NACA0012_AE3932, May 18th 2026
#
#       NOMENCLATURE:
#             X_ICED [m]:  X-coordinate of the iced surface
#             Y_ICED [m]:  Y-coordinate of the iced surface
#             Z_ICED [m]:  Z-coordinate of the iced surface
#
#                XXmm:  Roughness height used for the case, in mm.
#                       In the zone name, use the format KS_XXmm.
#                       For example, if k_s = 1.5 mm, use KS_1p5mm. 
#                       For Variable roughness, use KS_VAR
#
#    FLOW CONDITIONS:
#                                   AOA: 4.0 deg
#                           Mach Number: 0.3151 [-]
#       Mean aerodynamic chord (M.A.C.): 0.5334 [m]
#                       Reynolds Number: 3.9795 million (based on MAC)
#                       Freestream Temp: 267.55 [K]
#                        Reference area: 0.97548 [m2]
#               Moment Reference Center: 0.13335, 0, 0 [m] (X, Y, Z)
#
#    ICING CONDITIONS:
#                           Icing Time: 420 [s]
#                                  LWC: 0.55 [g/m3]
#                                  MVD: 20 [μm]
#
#              NOTES: 1. Please use at least 5 decimal places in the numerical values
#                     2. If data are NOT provided, please fill data fields with a numerical value of "-999" 
#
#++++++++++++++++++++++++++++++++++++++++++++++++++++++++++++++++++++++++++++++++++++++++++++++++++++++++++++++++++++

AUXDATA NUM_LAYERS  = "insert the number of total ice layers"
                                              
VARIABLES = "X_ICED" "Y_ICED" "Z_ICED"

ZONE T="SLICE_Y_0p9144_BINS01_KS_0p5mm_SINGLE_LAYER"
0.53242 0.91440 -0.02798 
0.53241 0.91440 -0.02813 
0.53240 0.91440 -0.02828 
0.53239 0.91440 -0.02843 
0.53238 0.91440 -0.02858 
0.53086 0.91440 -0.02868 
0.52843 0.91440 -0.02885 
0.52453 0.91440 -0.02911 
0.51931 0.91440 -0.02946 
0.51409 0.91440 -0.02980 
0.50887 0.91440 -0.03013 
0.50365 0.91440 -0.03045 
0.49843 0.91440 -0.03077 
0.49321 0.91440 -0.03107 
0.48799 0.91440 -0.03137 
0.48277 0.91440 -0.03166 
0.47754 0.91440 -0.03195 
0.47232 0.91440 -0.03223 
0.46710 0.91440 -0.03250 
0.46187 0.91440 -0.03276 
0.45665 0.91440 -0.03302 
0.45143 0.91440 -0.03327 
0.44620 0.91440 -0.03351 
0.44098 0.91440 -0.03374 
0.43575 0.91440 -0.03397 
0.43052 0.91440 -0.03420 
0.42530 0.91440 -0.03441 
0.42007 0.91440 -0.03462 
0.41484 0.91440 -0.03482 
0.40962 0.91440 -0.03502 
0.40439 0.91440 -0.03521 
0.39916 0.91440 -0.03539 
0.39394 0.91440 -0.03556 
0.38871 0.91440 -0.03573 
0.38348 0.91440 -0.03589 
0.37825 0.91440 -0.03605 
0.37302 0.91440 -0.03620 
0.36779 0.91440 -0.03634 
0.36257 0.91440 -0.03647 
0.35734 0.91440 -0.03660 
0.35211 0.91440 -0.03672 
0.34688 0.91440 -0.03683 
0.34165 0.91440 -0.03693 
0.33642 0.91440 -0.03703 
0.33119 0.91440 -0.03712 
0.32596 0.91440 -0.03720 
0.32073 0.91440 -0.03727 
0.31550 0.91440 -0.03733 
0.31027 0.91440 -0.03739 
0.30504 0.91440 -0.03743 
0.29981 0.91440 -0.03747 
0.29458 0.91440 -0.03750 
0.28935 0.91440 -0.03752 
0.28412 0.91440 -0.03753 
0.27889 0.91440 -0.03753 
0.27366 0.91440 -0.03752 
0.26843 0.91440 -0.03750 
0.26320 0.91440 -0.03746 
0.25797 0.91440 -0.03742 
0.25273 0.91440 -0.03736 
0.24750 0.91440 -0.03730 
0.24227 0.91440 -0.03722 
0.23705 0.91440 -0.03712 
0.23182 0.91440 -0.03702 
0.22659 0.91440 -0.03690 
0.22136 0.91440 -0.03677 
0.21613 0.91440 -0.03662 
0.21090 0.91440 -0.03646 
0.20567 0.91440 -0.03628 
0.20045 0.91440 -0.03608 
0.19522 0.91440 -0.03587 
0.19000 0.91440 -0.03564 
0.18477 0.91440 -0.03539 
0.17955 0.91440 -0.03513 
0.17432 0.91440 -0.03484 
0.16910 0.91440 -0.03454 
0.16388 0.91440 -0.03421 
0.15866 0.91440 -0.03386 
0.15345 0.91440 -0.03349 
0.14823 0.91440 -0.03309 
0.14302 0.91440 -0.03267 
0.13781 0.91440 -0.03223 
0.13258 0.91440 -0.03175 
0.12761 0.91440 -0.03127 
0.12288 0.91440 -0.03079 
0.11837 0.91440 -0.03030 
0.11408 0.91440 -0.02982 
0.11000 0.91440 -0.02934 
0.10611 0.91440 -0.02886 
0.10242 0.91440 -0.02838 
0.09910 0.91440 -0.02951 
0.09571 0.91440 -0.03109 
0.09193 0.91440 -0.03114 
0.08872 0.91440 -0.03078 
0.08578 0.91440 -0.03038 
0.08289 0.91440 -0.02993 
0.08000 0.91440 -0.02947 
0.07712 0.91440 -0.02899 
0.07424 0.91440 -0.02848 
0.07136 0.91440 -0.02796 
0.06848 0.91440 -0.02742 
0.06561 0.91440 -0.02686 
0.06274 0.91440 -0.02628 
0.05987 0.91440 -0.02568 
0.05700 0.91440 -0.02506 
0.05414 0.91440 -0.02442 
0.05128 0.91440 -0.02376 
0.04842 0.91440 -0.02307 
0.04557 0.91440 -0.02235 
0.04272 0.91440 -0.02159 
0.03987 0.91440 -0.02079 
0.03703 0.91440 -0.01995 
0.03420 0.91440 -0.01906 
0.03138 0.91440 -0.01813 
0.02857 0.91440 -0.01713 
0.02578 0.91440 -0.01606 
0.02300 0.91440 -0.01492 
0.02025 0.91440 -0.01369 
0.01754 0.91440 -0.01235 
0.01486 0.91440 -0.01090 
0.01224 0.91440 -0.00932 
0.00970 0.91440 -0.00758 
0.00727 0.91440 -0.00567 
0.00496 0.91440 -0.00358 
0.00301 0.91440 -0.00151 
0.00146 0.91440 0.00043 
0.00025 0.91440 0.00215 
-0.00086 0.91440 0.00354 
-0.00203 0.91440 0.00460 
-0.00335 0.91440 0.00568 
-0.00484 0.91440 0.00721 
-0.00628 0.91440 0.00951 
-0.00723 0.91440 0.01257 
-0.00739 0.91440 0.01631 
-0.00629 0.91440 0.02035 
-0.00393 0.91440 0.02441 
-0.00003 0.91440 0.02715 
0.00609 0.91440 0.02930 
0.01238 0.91440 0.02616 
0.01338 0.91440 0.02246 
0.01594 0.91440 0.02279 
0.01866 0.91440 0.02374 
0.02142 0.91440 0.02459 
0.02420 0.91440 0.02536 
0.02700 0.91440 0.02606 
0.02981 0.91440 0.02670 
0.03263 0.91440 0.02729 
0.03547 0.91440 0.02782 
0.03831 0.91440 0.02831 
0.04116 0.91440 0.02876 
0.04401 0.91440 0.02918 
0.04687 0.91440 0.02956 
0.04974 0.91440 0.02991 
0.05260 0.91440 0.03023 
0.05547 0.91440 0.03052 
0.05835 0.91440 0.03078 
0.06122 0.91440 0.03103 
0.06410 0.91440 0.03124 
0.06697 0.91440 0.03144 
0.06985 0.91440 0.03162 
0.07273 0.91440 0.03178 
0.07562 0.91440 0.03191 
0.07850 0.91440 0.03203 
0.08138 0.91440 0.03214 
0.08426 0.91440 0.03223 
0.08715 0.91440 0.03230 
0.09003 0.91440 0.03235 
0.09283 0.91440 0.03239 
0.09576 0.91440 0.03242 
0.09885 0.91440 0.03244 
0.10208 0.91440 0.03244 
0.10548 0.91440 0.03242 
0.10905 0.91440 0.03239 
0.11280 0.91440 0.03233 
0.11673 0.91440 0.03225 
0.12086 0.91440 0.03215 
0.12519 0.91440 0.03202 
0.12975 0.91440 0.03185 
0.13452 0.91440 0.03166 
0.13954 0.91440 0.03143 
0.14480 0.91440 0.03116 
0.15006 0.91440 0.03086 
0.15532 0.91440 0.03054 
0.16058 0.91440 0.03019 
0.16583 0.91440 0.02981 
0.17108 0.91440 0.02942 
0.17633 0.91440 0.02900 
0.18158 0.91440 0.02856 
0.18683 0.91440 0.02811 
0.19207 0.91440 0.02763 
0.19732 0.91440 0.02713 
0.20256 0.91440 0.02662 
0.20780 0.91440 0.02609 
0.21304 0.91440 0.02554 
0.21827 0.91440 0.02498 
0.22351 0.91440 0.02440 
0.22874 0.91440 0.02380 
0.23397 0.91440 0.02320 
0.23920 0.91440 0.02257 
0.24443 0.91440 0.02194 
0.24966 0.91440 0.02129 
0.25489 0.91440 0.02063 
0.26011 0.91440 0.01995 
0.26533 0.91440 0.01927 
0.27055 0.91440 0.01857 
0.27577 0.91440 0.01786 
0.28099 0.91440 0.01715 
0.28621 0.91440 0.01642 
0.29142 0.91440 0.01568 
0.29663 0.91440 0.01493 
0.30185 0.91440 0.01417 
0.30706 0.91440 0.01340 
0.31227 0.91440 0.01262 
0.31747 0.91440 0.01184 
0.32268 0.91440 0.01104 
0.32789 0.91440 0.01024 
0.33309 0.91440 0.00943 
0.33829 0.91440 0.00861 
0.34349 0.91440 0.00778 
0.34870 0.91440 0.00695 
0.35389 0.91440 0.00611 
0.35909 0.91440 0.00526 
0.36429 0.91440 0.00440 
0.36948 0.91440 0.00354 
0.37468 0.91440 0.00266 
0.37987 0.91440 0.00179 
0.38506 0.91440 0.00090 
0.39026 0.91440 0.00001 
0.39544 0.91440 -0.00089 
0.40063 0.91440 -0.00180 
0.40582 0.91440 -0.00271 
0.41101 0.91440 -0.00363 
0.41619 0.91440 -0.00456 
0.42138 0.91440 -0.00549 
0.42656 0.91440 -0.00643 
0.43174 0.91440 -0.00738 
0.43692 0.91440 -0.00833 
0.44210 0.91440 -0.00929 
0.44728 0.91440 -0.01026 
0.45245 0.91440 -0.01123 
0.45763 0.91440 -0.01221 
0.46280 0.91440 -0.01320 
0.46797 0.91440 -0.01419 
0.47314 0.91440 -0.01519 
0.47831 0.91440 -0.01620 
0.48348 0.91440 -0.01722 
0.48865 0.91440 -0.01824 
0.49381 0.91440 -0.01927 
0.49898 0.91440 -0.02031 
0.50414 0.91440 -0.02135 
0.50930 0.91440 -0.02240 
0.51446 0.91440 -0.02346 
0.51962 0.91440 -0.02453 
0.52477 0.91440 -0.02561 
0.52859 0.91440 -0.02641 
0.53098 0.91440 -0.02692 
0.53247 0.91440 -0.02724 
0.53246 0.91440 -0.02738 
0.53245 0.91440 -0.02753 
0.53244 0.91440 -0.02768 
0.53243 0.91440 -0.02783 
0.53242 0.91440 -0.02798 

ZONE T="SLICE_Y_0p9144_BINS03_KS_0p5mm_SINGLE_LAYER"
0.53242 0.91440 -0.02798 
0.53241 0.91440 -0.02813 
0.53240 0.91440 -0.02828 
0.53239 0.91440 -0.02843 
0.53238 0.91440 -0.02858 
0.53086 0.91440 -0.02868 
0.52843 0.91440 -0.02885 
0.52453 0.91440 -0.02911 
0.51931 0.91440 -0.02946 
0.51409 0.91440 -0.02980 
0.50887 0.91440 -0.03013 
0.50365 0.91440 -0.03045 
0.49843 0.91440 -0.03077 
0.49321 0.91440 -0.03107 
0.48799 0.91440 -0.03137 
0.48277 0.91440 -0.03166 
0.47754 0.91440 -0.03195 
0.47232 0.91440 -0.03223 
0.46710 0.91440 -0.03250 
0.46187 0.91440 -0.03276 
0.45665 0.91440 -0.03302 
0.45143 0.91440 -0.03327 
0.44620 0.91440 -0.03351 
0.44098 0.91440 -0.03374 
0.43575 0.91440 -0.03397 
0.43052 0.91440 -0.03420 
0.42530 0.91440 -0.03441 
0.42007 0.91440 -0.03462 
0.41484 0.91440 -0.03482 
0.40962 0.91440 -0.03502 
0.40439 0.91440 -0.03521 
0.39916 0.91440 -0.03539 
0.39394 0.91440 -0.03556 
0.38871 0.91440 -0.03573 
0.38348 0.91440 -0.03589 
0.37825 0.91440 -0.03605 
0.37302 0.91440 -0.03620 
0.36779 0.91440 -0.03634 
0.36257 0.91440 -0.03647 
0.35734 0.91440 -0.03660 
0.35211 0.91440 -0.03672 
0.34688 0.91440 -0.03683 
0.34165 0.91440 -0.03693 
0.33642 0.91440 -0.03703 
0.33119 0.91440 -0.03712 
0.32596 0.91440 -0.03720 
0.32073 0.91440 -0.03727 
0.31550 0.91440 -0.03733 
0.31027 0.91440 -0.03739 
0.30504 0.91440 -0.03743 
0.29981 0.91440 -0.03747 
0.29458 0.91440 -0.03750 
0.28935 0.91440 -0.03752 
0.28412 0.91440 -0.03753 
0.27889 0.91440 -0.03753 
0.27366 0.91440 -0.03752 
0.26843 0.91440 -0.03750 
0.26320 0.91440 -0.03746 
0.25797 0.91440 -0.03742 
0.25273 0.91440 -0.03736 
0.24750 0.91440 -0.03730 
0.24227 0.91440 -0.03722 
0.23705 0.91440 -0.03712 
0.23182 0.91440 -0.03702 
0.22659 0.91440 -0.03690 
0.22136 0.91440 -0.03677 
0.21613 0.91440 -0.03662 
0.21090 0.91440 -0.03646 
0.20567 0.91440 -0.03628 
0.20045 0.91440 -0.03608 
0.19522 0.91440 -0.03587 
0.19000 0.91440 -0.03564 
0.18477 0.91440 -0.03539 
0.17955 0.91440 -0.03513 
0.17432 0.91440 -0.03484 
0.16910 0.91440 -0.03454 
0.16388 0.91440 -0.03421 
0.15866 0.91440 -0.03386 
0.15345 0.91440 -0.03349 
0.14823 0.91440 -0.03309 
0.14302 0.91440 -0.03267 
0.13781 0.91440 -0.03223 
0.13258 0.91440 -0.03178 
0.12760 0.91440 -0.03135 
0.12286 0.91440 -0.03092 
0.11835 0.91440 -0.03049 
0.11406 0.91440 -0.03006 
0.10998 0.91440 -0.02963 
0.10615 0.91440 -0.02971 
0.10268 0.91440 -0.03114 
0.09875 0.91440 -0.03209 
0.09498 0.91440 -0.03169 
0.09175 0.91440 -0.03132 
0.08868 0.91440 -0.03087 
0.08577 0.91440 -0.03044 
0.08288 0.91440 -0.03000 
0.07999 0.91440 -0.02954 
0.07711 0.91440 -0.02906 
0.07423 0.91440 -0.02856 
0.07135 0.91440 -0.02804 
0.06847 0.91440 -0.02750 
0.06559 0.91440 -0.02694 
0.06272 0.91440 -0.02636 
0.05985 0.91440 -0.02575 
0.05698 0.91440 -0.02512 
0.05412 0.91440 -0.02447 
0.05127 0.91440 -0.02379 
0.04841 0.91440 -0.02310 
0.04556 0.91440 -0.02237 
0.04270 0.91440 -0.02161 
0.03986 0.91440 -0.02081 
0.03702 0.91440 -0.01996 
0.03420 0.91440 -0.01907 
0.03138 0.91440 -0.01813 
0.02857 0.91440 -0.01712 
0.02578 0.91440 -0.01604 
0.02301 0.91440 -0.01489 
0.02026 0.91440 -0.01365 
0.01755 0.91440 -0.01231 
0.01488 0.91440 -0.01085 
0.01228 0.91440 -0.00925 
0.00974 0.91440 -0.00751 
0.00731 0.91440 -0.00560 
0.00501 0.91440 -0.00352 
0.00306 0.91440 -0.00146 
0.00152 0.91440 0.00047 
0.00031 0.91440 0.00219 
-0.00080 0.91440 0.00358 
-0.00197 0.91440 0.00463 
-0.00329 0.91440 0.00571 
-0.00479 0.91440 0.00722 
-0.00623 0.91440 0.00950 
-0.00719 0.91440 0.01254 
-0.00737 0.91440 0.01627 
-0.00631 0.91440 0.02030 
-0.00398 0.91440 0.02438 
-0.00011 0.91440 0.02715 
0.00595 0.91440 0.02937 
0.01235 0.91440 0.02643 
0.01346 0.91440 0.02290 
0.01585 0.91440 0.02314 
0.01864 0.91440 0.02382 
0.02142 0.91440 0.02459 
0.02420 0.91440 0.02536 
0.02700 0.91440 0.02606 
0.02981 0.91440 0.02670 
0.03263 0.91440 0.02729 
0.03547 0.91440 0.02782 
0.03831 0.91440 0.02831 
0.04116 0.91440 0.02876 
0.04401 0.91440 0.02918 
0.04687 0.91440 0.02956 
0.04974 0.91440 0.02991 
0.05260 0.91440 0.03023 
0.05547 0.91440 0.03052 
0.05835 0.91440 0.03078 
0.06122 0.91440 0.03103 
0.06410 0.91440 0.03124 
0.06697 0.91440 0.03144 
0.06985 0.91440 0.03162 
0.07273 0.91440 0.03178 
0.07562 0.91440 0.03191 
0.07850 0.91440 0.03203 
0.08138 0.91440 0.03214 
0.08426 0.91440 0.03223 
0.08715 0.91440 0.03230 
0.09003 0.91440 0.03235 
0.09283 0.91440 0.03239 
0.09576 0.91440 0.03242 
0.09885 0.91440 0.03244 
0.10208 0.91440 0.03244 
0.10548 0.91440 0.03242 
0.10905 0.91440 0.03239 
0.11280 0.91440 0.03233 
0.11673 0.91440 0.03225 
0.12086 0.91440 0.03215 
0.12519 0.91440 0.03202 
0.12975 0.91440 0.03185 
0.13452 0.91440 0.03166 
0.13954 0.91440 0.03143 
0.14480 0.91440 0.03116 
0.15006 0.91440 0.03086 
0.15532 0.91440 0.03054 
0.16058 0.91440 0.03019 
0.16583 0.91440 0.02981 
0.17108 0.91440 0.02942 
0.17633 0.91440 0.02900 
0.18158 0.91440 0.02856 
0.18683 0.91440 0.02811 
0.19207 0.91440 0.02763 
0.19732 0.91440 0.02713 
0.20256 0.91440 0.02662 
0.20780 0.91440 0.02609 
0.21304 0.91440 0.02554 
0.21827 0.91440 0.02498 
0.22351 0.91440 0.02440 
0.22874 0.91440 0.02380 
0.23397 0.91440 0.02320 
0.23920 0.91440 0.02257 
0.24443 0.91440 0.02194 
0.24966 0.91440 0.02129 
0.25489 0.91440 0.02063 
0.26011 0.91440 0.01995 
0.26533 0.91440 0.01927 
0.27055 0.91440 0.01857 
0.27577 0.91440 0.01786 
0.28099 0.91440 0.01715 
0.28621 0.91440 0.01642 
0.29142 0.91440 0.01568 
0.29663 0.91440 0.01493 
0.30185 0.91440 0.01417 
0.30706 0.91440 0.01340 
0.31227 0.91440 0.01262 
0.31747 0.91440 0.01184 
0.32268 0.91440 0.01104 
0.32789 0.91440 0.01024 
0.33309 0.91440 0.00943 
0.33829 0.91440 0.00861 
0.34349 0.91440 0.00778 
0.34870 0.91440 0.00695 
0.35389 0.91440 0.00611 
0.35909 0.91440 0.00526 
0.36429 0.91440 0.00440 
0.36948 0.91440 0.00354 
0.37468 0.91440 0.00266 
0.37987 0.91440 0.00179 
0.38506 0.91440 0.00090 
0.39026 0.91440 0.00001 
0.39544 0.91440 -0.00089 
0.40063 0.91440 -0.00180 
0.40582 0.91440 -0.00271 
0.41101 0.91440 -0.00363 
0.41619 0.91440 -0.00456 
0.42138 0.91440 -0.00549 
0.42656 0.91440 -0.00643 
0.43174 0.91440 -0.00738 
0.43692 0.91440 -0.00833 
0.44210 0.91440 -0.00929 
0.44728 0.91440 -0.01026 
0.45245 0.91440 -0.01123 
0.45763 0.91440 -0.01221 
0.46280 0.91440 -0.01320 
0.46797 0.91440 -0.01419 
0.47314 0.91440 -0.01519 
0.47831 0.91440 -0.01620 
0.48348 0.91440 -0.01722 
0.48865 0.91440 -0.01824 
0.49381 0.91440 -0.01927 
0.49898 0.91440 -0.02031 
0.50414 0.91440 -0.02135 
0.50930 0.91440 -0.02240 
0.51446 0.91440 -0.02346 
0.51962 0.91440 -0.02453 
0.52477 0.91440 -0.02561 
0.52859 0.91440 -0.02641 
0.53098 0.91440 -0.02692 
0.53247 0.91440 -0.02724 
0.53246 0.91440 -0.02738 
0.53245 0.91440 -0.02753 
0.53244 0.91440 -0.02768 
0.53243 0.91440 -0.02783 
0.53242 0.91440 -0.02798 

ZONE T="SLICE_Y_0p9144_BINS07_KS_0p5mm_SINGLE_LAYER"
0.53242 0.91440 -0.02798 
0.53241 0.91440 -0.02813 
0.53240 0.91440 -0.02828 
0.53239 0.91440 -0.02843 
0.53238 0.91440 -0.02858 
0.53086 0.91440 -0.02868 
0.52843 0.91440 -0.02885 
0.52453 0.91440 -0.02911 
0.51931 0.91440 -0.02946 
0.51409 0.91440 -0.02980 
0.50887 0.91440 -0.03013 
0.50365 0.91440 -0.03045 
0.49843 0.91440 -0.03077 
0.49321 0.91440 -0.03107 
0.48799 0.91440 -0.03137 
0.48277 0.91440 -0.03166 
0.47754 0.91440 -0.03195 
0.47232 0.91440 -0.03223 
0.46710 0.91440 -0.03250 
0.46187 0.91440 -0.03276 
0.45665 0.91440 -0.03302 
0.45143 0.91440 -0.03327 
0.44620 0.91440 -0.03351 
0.44098 0.91440 -0.03374 
0.43575 0.91440 -0.03397 
0.43052 0.91440 -0.03420 
0.42530 0.91440 -0.03441 
0.42007 0.91440 -0.03462 
0.41484 0.91440 -0.03482 
0.40962 0.91440 -0.03502 
0.40439 0.91440 -0.03521 
0.39916 0.91440 -0.03539 
0.39394 0.91440 -0.03556 
0.38871 0.91440 -0.03573 
0.38348 0.91440 -0.03589 
0.37825 0.91440 -0.03605 
0.37302 0.91440 -0.03620 
0.36779 0.91440 -0.03634 
0.36257 0.91440 -0.03647 
0.35734 0.91440 -0.03660 
0.35211 0.91440 -0.03672 
0.34688 0.91440 -0.03683 
0.34165 0.91440 -0.03693 
0.33642 0.91440 -0.03703 
0.33119 0.91440 -0.03712 
0.32596 0.91440 -0.03720 
0.32073 0.91440 -0.03727 
0.31550 0.91440 -0.03733 
0.31027 0.91440 -0.03739 
0.30504 0.91440 -0.03743 
0.29981 0.91440 -0.03747 
0.29458 0.91440 -0.03750 
0.28935 0.91440 -0.03752 
0.28412 0.91440 -0.03753 
0.27889 0.91440 -0.03753 
0.27366 0.91440 -0.03752 
0.26843 0.91440 -0.03750 
0.26320 0.91440 -0.03746 
0.25797 0.91440 -0.03742 
0.25273 0.91440 -0.03736 
0.24750 0.91440 -0.03730 
0.24227 0.91440 -0.03722 
0.23705 0.91440 -0.03712 
0.23182 0.91440 -0.03702 
0.22659 0.91440 -0.03690 
0.22136 0.91440 -0.03677 
0.21613 0.91440 -0.03662 
0.21090 0.91440 -0.03646 
0.20567 0.91440 -0.03628 
0.20045 0.91440 -0.03608 
0.19522 0.91440 -0.03587 
0.19000 0.91440 -0.03564 
0.18477 0.91440 -0.03539 
0.17955 0.91440 -0.03513 
0.17432 0.91440 -0.03484 
0.16910 0.91440 -0.03454 
0.16388 0.91440 -0.03421 
0.15866 0.91440 -0.03386 
0.15345 0.91440 -0.03349 
0.14823 0.91440 -0.03309 
0.14302 0.91440 -0.03267 
0.13780 0.91440 -0.03224 
0.13258 0.91440 -0.03180 
0.12760 0.91440 -0.03137 
0.12286 0.91440 -0.03093 
0.11835 0.91440 -0.03050 
0.11405 0.91440 -0.03007 
0.10998 0.91440 -0.02964 
0.10621 0.91440 -0.03015 
0.10263 0.91440 -0.03160 
0.09863 0.91440 -0.03213 
0.09497 0.91440 -0.03174 
0.09174 0.91440 -0.03134 
0.08868 0.91440 -0.03090 
0.08577 0.91440 -0.03046 
0.08288 0.91440 -0.03002 
0.07999 0.91440 -0.02956 
0.07711 0.91440 -0.02909 
0.07422 0.91440 -0.02859 
0.07134 0.91440 -0.02808 
0.06846 0.91440 -0.02754 
0.06558 0.91440 -0.02699 
0.06271 0.91440 -0.02641 
0.05984 0.91440 -0.02580 
0.05697 0.91440 -0.02518 
0.05411 0.91440 -0.02453 
0.05125 0.91440 -0.02385 
0.04839 0.91440 -0.02315 
0.04554 0.91440 -0.02242 
0.04269 0.91440 -0.02165 
0.03984 0.91440 -0.02084 
0.03701 0.91440 -0.01999 
0.03418 0.91440 -0.01909 
0.03137 0.91440 -0.01814 
0.02856 0.91440 -0.01713 
0.02577 0.91440 -0.01604 
0.02301 0.91440 -0.01488 
0.02027 0.91440 -0.01363 
0.01756 0.91440 -0.01229 
0.01489 0.91440 -0.01084 
0.01228 0.91440 -0.00925 
0.00975 0.91440 -0.00750 
0.00732 0.91440 -0.00559 
0.00502 0.91440 -0.00351 
0.00308 0.91440 -0.00145 
0.00153 0.91440 0.00048 
0.00032 0.91440 0.00220 
-0.00078 0.91440 0.00358 
-0.00196 0.91440 0.00464 
-0.00328 0.91440 0.00571 
-0.00478 0.91440 0.00721 
-0.00623 0.91440 0.00949 
-0.00720 0.91440 0.01253 
-0.00739 0.91440 0.01626 
-0.00634 0.91440 0.02029 
-0.00402 0.91440 0.02438 
-0.00014 0.91440 0.02717 
0.00600 0.91440 0.02941 
0.01238 0.91440 0.02635 
0.01343 0.91440 0.02282 
0.01583 0.91440 0.02319 
0.01863 0.91440 0.02384 
0.02142 0.91440 0.02459 
0.02420 0.91440 0.02536 
0.02700 0.91440 0.02606 
0.02981 0.91440 0.02670 
0.03263 0.91440 0.02729 
0.03547 0.91440 0.02782 
0.03831 0.91440 0.02831 
0.04116 0.91440 0.02876 
0.04401 0.91440 0.02918 
0.04687 0.91440 0.02956 
0.04974 0.91440 0.02991 
0.05260 0.91440 0.03023 
0.05547 0.91440 0.03052 
0.05835 0.91440 0.03078 
0.06122 0.91440 0.03103 
0.06410 0.91440 0.03124 
0.06697 0.91440 0.03144 
0.06985 0.91440 0.03162 
0.07273 0.91440 0.03178 
0.07562 0.91440 0.03191 
0.07850 0.91440 0.03203 
0.08138 0.91440 0.03214 
0.08426 0.91440 0.03223 
0.08715 0.91440 0.03230 
0.09003 0.91440 0.03235 
0.09283 0.91440 0.03239 
0.09576 0.91440 0.03242 
0.09885 0.91440 0.03244 
0.10208 0.91440 0.03244 
0.10548 0.91440 0.03242 
0.10905 0.91440 0.03239 
0.11280 0.91440 0.03233 
0.11673 0.91440 0.03225 
0.12086 0.91440 0.03215 
0.12519 0.91440 0.03202 
0.12975 0.91440 0.03185 
0.13452 0.91440 0.03166 
0.13954 0.91440 0.03143 
0.14480 0.91440 0.03116 
0.15006 0.91440 0.03086 
0.15532 0.91440 0.03054 
0.16058 0.91440 0.03019 
0.16583 0.91440 0.02981 
0.17108 0.91440 0.02942 
0.17633 0.91440 0.02900 
0.18158 0.91440 0.02856 
0.18683 0.91440 0.02811 
0.19207 0.91440 0.02763 
0.19732 0.91440 0.02713 
0.20256 0.91440 0.02662 
0.20780 0.91440 0.02609 
0.21304 0.91440 0.02554 
0.21827 0.91440 0.02498 
0.22351 0.91440 0.02440 
0.22874 0.91440 0.02380 
0.23397 0.91440 0.02320 
0.23920 0.91440 0.02257 
0.24443 0.91440 0.02194 
0.24966 0.91440 0.02129 
0.25489 0.91440 0.02063 
0.26011 0.91440 0.01995 
0.26533 0.91440 0.01927 
0.27055 0.91440 0.01857 
0.27577 0.91440 0.01786 
0.28099 0.91440 0.01715 
0.28621 0.91440 0.01642 
0.29142 0.91440 0.01568 
0.29663 0.91440 0.01493 
0.30185 0.91440 0.01417 
0.30706 0.91440 0.01340 
0.31227 0.91440 0.01262 
0.31747 0.91440 0.01184 
0.32268 0.91440 0.01104 
0.32789 0.91440 0.01024 
0.33309 0.91440 0.00943 
0.33829 0.91440 0.00861 
0.34349 0.91440 0.00778 
0.34870 0.91440 0.00695 
0.35389 0.91440 0.00611 
0.35909 0.91440 0.00526 
0.36429 0.91440 0.00440 
0.36948 0.91440 0.00354 
0.37468 0.91440 0.00266 
0.37987 0.91440 0.00179 
0.38506 0.91440 0.00090 
0.39026 0.91440 0.00001 
0.39544 0.91440 -0.00089 
0.40063 0.91440 -0.00180 
0.40582 0.91440 -0.00271 
0.41101 0.91440 -0.00363 
0.41619 0.91440 -0.00456 
0.42138 0.91440 -0.00549 
0.42656 0.91440 -0.00643 
0.43174 0.91440 -0.00738 
0.43692 0.91440 -0.00833 
0.44210 0.91440 -0.00929 
0.44728 0.91440 -0.01026 
0.45245 0.91440 -0.01123 
0.45763 0.91440 -0.01221 
0.46280 0.91440 -0.01320 
0.46797 0.91440 -0.01419 
0.47314 0.91440 -0.01519 
0.47831 0.91440 -0.01620 
0.48348 0.91440 -0.01722 
0.48865 0.91440 -0.01824 
0.49381 0.91440 -0.01927 
0.49898 0.91440 -0.02031 
0.50414 0.91440 -0.02135 
0.50930 0.91440 -0.02240 
0.51446 0.91440 -0.02346 
0.51962 0.91440 -0.02453 
0.52477 0.91440 -0.02561 
0.52859 0.91440 -0.02641 
0.53098 0.91440 -0.02692 
0.53247 0.91440 -0.02724 
0.53246 0.91440 -0.02738 
0.53245 0.91440 -0.02753 
0.53244 0.91440 -0.02768 
0.53243 0.91440 -0.02783 
0.53242 0.91440 -0.02798 

ZONE T="SLICE_Y_0p9144_BINS15_KS_0p5mm_SINGLE_LAYER"
0.53242 0.91440 -0.02798 
0.53241 0.91440 -0.02813 
0.53240 0.91440 -0.02828 
0.53239 0.91440 -0.02843 
0.53238 0.91440 -0.02858 
0.53086 0.91440 -0.02868 
0.52843 0.91440 -0.02885 
0.52453 0.91440 -0.02911 
0.51931 0.91440 -0.02946 
0.51409 0.91440 -0.02980 
0.50887 0.91440 -0.03013 
0.50365 0.91440 -0.03045 
0.49843 0.91440 -0.03077 
0.49321 0.91440 -0.03107 
0.48799 0.91440 -0.03137 
0.48277 0.91440 -0.03166 
0.47754 0.91440 -0.03195 
0.47232 0.91440 -0.03223 
0.46710 0.91440 -0.03250 
0.46187 0.91440 -0.03276 
0.45665 0.91440 -0.03302 
0.45143 0.91440 -0.03327 
0.44620 0.91440 -0.03351 
0.44098 0.91440 -0.03374 
0.43575 0.91440 -0.03397 
0.43052 0.91440 -0.03420 
0.42530 0.91440 -0.03441 
0.42007 0.91440 -0.03462 
0.41484 0.91440 -0.03482 
0.40962 0.91440 -0.03502 
0.40439 0.91440 -0.03521 
0.39916 0.91440 -0.03539 
0.39394 0.91440 -0.03556 
0.38871 0.91440 -0.03573 
0.38348 0.91440 -0.03589 
0.37825 0.91440 -0.03605 
0.37302 0.91440 -0.03620 
0.36779 0.91440 -0.03634 
0.36257 0.91440 -0.03647 
0.35734 0.91440 -0.03660 
0.35211 0.91440 -0.03672 
0.34688 0.91440 -0.03683 
0.34165 0.91440 -0.03693 
0.33642 0.91440 -0.03703 
0.33119 0.91440 -0.03712 
0.32596 0.91440 -0.03720 
0.32073 0.91440 -0.03727 
0.31550 0.91440 -0.03733 
0.31027 0.91440 -0.03739 
0.30504 0.91440 -0.03743 
0.29981 0.91440 -0.03747 
0.29458 0.91440 -0.03750 
0.28935 0.91440 -0.03752 
0.28412 0.91440 -0.03753 
0.27889 0.91440 -0.03753 
0.27366 0.91440 -0.03752 
0.26843 0.91440 -0.03750 
0.26320 0.91440 -0.03746 
0.25797 0.91440 -0.03742 
0.25273 0.91440 -0.03736 
0.24750 0.91440 -0.03730 
0.24227 0.91440 -0.03722 
0.23705 0.91440 -0.03712 
0.23182 0.91440 -0.03702 
0.22659 0.91440 -0.03690 
0.22136 0.91440 -0.03677 
0.21613 0.91440 -0.03662 
0.21090 0.91440 -0.03646 
0.20567 0.91440 -0.03628 
0.20045 0.91440 -0.03608 
0.19522 0.91440 -0.03587 
0.19000 0.91440 -0.03564 
0.18477 0.91440 -0.03539 
0.17955 0.91440 -0.03513 
0.17432 0.91440 -0.03484 
0.16910 0.91440 -0.03454 
0.16388 0.91440 -0.03421 
0.15866 0.91440 -0.03386 
0.15345 0.91440 -0.03349 
0.14823 0.91440 -0.03309 
0.14302 0.91440 -0.03268 
0.13780 0.91440 -0.03226 
0.13258 0.91440 -0.03182 
0.12760 0.91440 -0.03137 
0.12286 0.91440 -0.03094 
0.11835 0.91440 -0.03050 
0.11406 0.91440 -0.03006 
0.10998 0.91440 -0.02963 
0.10619 0.91440 -0.03006 
0.10265 0.91440 -0.03150 
0.09866 0.91440 -0.03213 
0.09498 0.91440 -0.03173 
0.09174 0.91440 -0.03134 
0.08868 0.91440 -0.03090 
0.08577 0.91440 -0.03047 
0.08288 0.91440 -0.03003 
0.07999 0.91440 -0.02957 
0.07711 0.91440 -0.02909 
0.07422 0.91440 -0.02859 
0.07134 0.91440 -0.02808 
0.06846 0.91440 -0.02754 
0.06558 0.91440 -0.02699 
0.06271 0.91440 -0.02641 
0.05984 0.91440 -0.02580 
0.05697 0.91440 -0.02518 
0.05411 0.91440 -0.02453 
0.05125 0.91440 -0.02385 
0.04839 0.91440 -0.02315 
0.04554 0.91440 -0.02242 
0.04269 0.91440 -0.02165 
0.03984 0.91440 -0.02084 
0.03701 0.91440 -0.01999 
0.03418 0.91440 -0.01909 
0.03137 0.91440 -0.01814 
0.02856 0.91440 -0.01713 
0.02577 0.91440 -0.01604 
0.02301 0.91440 -0.01488 
0.02026 0.91440 -0.01364 
0.01756 0.91440 -0.01229 
0.01489 0.91440 -0.01083 
0.01228 0.91440 -0.00924 
0.00975 0.91440 -0.00750 
0.00732 0.91440 -0.00559 
0.00503 0.91440 -0.00351 
0.00308 0.91440 -0.00144 
0.00154 0.91440 0.00049 
0.00033 0.91440 0.00221 
-0.00078 0.91440 0.00359 
-0.00195 0.91440 0.00464 
-0.00328 0.91440 0.00571 
-0.00478 0.91440 0.00721 
-0.00623 0.91440 0.00949 
-0.00720 0.91440 0.01253 
-0.00739 0.91440 0.01626 
-0.00634 0.91440 0.02029 
-0.00402 0.91440 0.02438 
-0.00013 0.91440 0.02717 
0.00602 0.91440 0.02941 
0.01238 0.91440 0.02631 
0.01342 0.91440 0.02279 
0.01583 0.91440 0.02319 
0.01863 0.91440 0.02384 
0.02142 0.91440 0.02459 
0.02420 0.91440 0.02536 
0.02700 0.91440 0.02606 
0.02981 0.91440 0.02670 
0.03263 0.91440 0.02729 
0.03547 0.91440 0.02782 
0.03831 0.91440 0.02831 
0.04116 0.91440 0.02876 
0.04401 0.91440 0.02918 
0.04687 0.91440 0.02956 
0.04974 0.91440 0.02991 
0.05260 0.91440 0.03023 
0.05547 0.91440 0.03052 
0.05835 0.91440 0.03078 
0.06122 0.91440 0.03103 
0.06410 0.91440 0.03124 
0.06697 0.91440 0.03144 
0.06985 0.91440 0.03162 
0.07273 0.91440 0.03178 
0.07562 0.91440 0.03191 
0.07850 0.91440 0.03203 
0.08138 0.91440 0.03214 
0.08426 0.91440 0.03223 
0.08715 0.91440 0.03230 
0.09003 0.91440 0.03235 
0.09283 0.91440 0.03239 
0.09576 0.91440 0.03242 
0.09885 0.91440 0.03244 
0.10208 0.91440 0.03244 
0.10548 0.91440 0.03242 
0.10905 0.91440 0.03239 
0.11280 0.91440 0.03233 
0.11673 0.91440 0.03225 
0.12086 0.91440 0.03215 
0.12519 0.91440 0.03202 
0.12975 0.91440 0.03185 
0.13452 0.91440 0.03166 
0.13954 0.91440 0.03143 
0.14480 0.91440 0.03116 
0.15006 0.91440 0.03086 
0.15532 0.91440 0.03054 
0.16058 0.91440 0.03019 
0.16583 0.91440 0.02981 
0.17108 0.91440 0.02942 
0.17633 0.91440 0.02900 
0.18158 0.91440 0.02856 
0.18683 0.91440 0.02811 
0.19207 0.91440 0.02763 
0.19732 0.91440 0.02713 
0.20256 0.91440 0.02662 
0.20780 0.91440 0.02609 
0.21304 0.91440 0.02554 
0.21827 0.91440 0.02498 
0.22351 0.91440 0.02440 
0.22874 0.91440 0.02380 
0.23397 0.91440 0.02320 
0.23920 0.91440 0.02257 
0.24443 0.91440 0.02194 
0.24966 0.91440 0.02129 
0.25489 0.91440 0.02063 
0.26011 0.91440 0.01995 
0.26533 0.91440 0.01927 
0.27055 0.91440 0.01857 
0.27577 0.91440 0.01786 
0.28099 0.91440 0.01715 
0.28621 0.91440 0.01642 
0.29142 0.91440 0.01568 
0.29663 0.91440 0.01493 
0.30185 0.91440 0.01417 
0.30706 0.91440 0.01340 
0.31227 0.91440 0.01262 
0.31747 0.91440 0.01184 
0.32268 0.91440 0.01104 
0.32789 0.91440 0.01024 
0.33309 0.91440 0.00943 
0.33829 0.91440 0.00861 
0.34349 0.91440 0.00778 
0.34870 0.91440 0.00695 
0.35389 0.91440 0.00611 
0.35909 0.91440 0.00526 
0.36429 0.91440 0.00440 
0.36948 0.91440 0.00354 
0.37468 0.91440 0.00266 
0.37987 0.91440 0.00179 
0.38506 0.91440 0.00090 
0.39026 0.91440 0.00001 
0.39544 0.91440 -0.00089 
0.40063 0.91440 -0.00180 
0.40582 0.91440 -0.00271 
0.41101 0.91440 -0.00363 
0.41619 0.91440 -0.00456 
0.42138 0.91440 -0.00549 
0.42656 0.91440 -0.00643 
0.43174 0.91440 -0.00738 
0.43692 0.91440 -0.00833 
0.44210 0.91440 -0.00929 
0.44728 0.91440 -0.01026 
0.45245 0.91440 -0.01123 
0.45763 0.91440 -0.01221 
0.46280 0.91440 -0.01320 
0.46797 0.91440 -0.01419 
0.47314 0.91440 -0.01519 
0.47831 0.91440 -0.01620 
0.48348 0.91440 -0.01722 
0.48865 0.91440 -0.01824 
0.49381 0.91440 -0.01927 
0.49898 0.91440 -0.02031 
0.50414 0.91440 -0.02135 
0.50930 0.91440 -0.02240 
0.51446 0.91440 -0.02346 
0.51962 0.91440 -0.02453 
0.52477 0.91440 -0.02561 
0.52859 0.91440 -0.02641 
0.53098 0.91440 -0.02692 
0.53247 0.91440 -0.02724 
0.53246 0.91440 -0.02738 
0.53245 0.91440 -0.02753 
0.53244 0.91440 -0.02768 
0.53243 0.91440 -0.02783 
0.53242 0.91440 -0.02798 

