TITLE = "TC_NACA0012_3932_L2_finalIceShape_V1 | NACA0012 coordinates rotated +4 degrees about X=0.13335 m"
AUXDATA NUM_LAYERS = "insert the number of total ice layers"
VARIABLES = "X_ICED" "Y_ICED" "Z_ICED"

ZONE T="SLICE_Y_0p9144_BINS01_KS_0p5334mm_SINGLE_LAYER"
0.53340476436 0.9144 -3.59910094617e-06
0.533402461931 0.9144 -0.000114028711212
0.533400159503 0.9144 -0.000224458321478
0.533397857075 0.9144 -0.000334887931744
0.533395554646 0.9144 -0.00044531754201
0.533403227858 0.9144 -0.000555049587539
0.533401622995 0.9144 -0.000675454838307
0.533043895066 0.9144 -0.000720518449861
0.532468098176 0.9144 -0.000800879766643
0.531555222203 0.9144 -0.000934885206005
0.530095778696 0.9144 -0.00113718362744
0.527752688574 0.9144 -0.00146141915351
0.524009311223 0.9144 -0.00197379207209
0.520275909512 0.9144 -0.00248546742594
0.516542507801 0.9144 -0.00299714277978
0.512808408526 0.9144 -0.00349884249312
0.509073611686 0.9144 -0.00399056656596
0.505338814846 0.9144 -0.00448229063879
0.501604018006 0.9144 -0.00497401471163
0.497869221166 0.9144 -0.00546573878447
0.494133726761 0.9144 -0.0059474872168
0.490387559151 0.9144 -0.00641995757337
0.486651367182 0.9144 -0.00689173036521
0.482915175212 0.9144 -0.00736350315704
0.479178983243 0.9144 -0.00783527594887
0.475442093709 0.9144 -0.0082970731002
0.47170450661 0.9144 -0.00874889461103
0.467957641435 0.9144 -0.0092113893271
0.464220054336 0.9144 -0.00966321083792
0.460481769672 0.9144 -0.0101050567082
0.456734206933 0.9144 -0.0105575757838
0.452995922269 0.9144 -0.0109994216541
0.449256940041 0.9144 -0.011431291884
0.445507982172 0.9144 -0.0118638596785
0.441768999943 0.9144 -0.0122957299083
0.438030017715 0.9144 -0.0127276001382
0.434280362281 0.9144 -0.0131501922922
0.430539984923 0.9144 -0.013562111241
0.42679032949 0.9144 -0.0139847033951
0.423049952132 0.9144 -0.0143966223439
0.419309574774 0.9144 -0.0148085412927
0.415558524211 0.9144 -0.0152111821658
0.411817449288 0.9144 -0.0156131254741
0.408066398725 0.9144 -0.0160157663471
0.404324626237 0.9144 -0.016407734015
0.400572878109 0.9144 -0.0168003992475
0.396831105622 0.9144 -0.0171923669153
0.393078659929 0.9144 -0.0175750565074
0.389336189877 0.9144 -0.0179570485347
0.385583744185 0.9144 -0.0183397381267
0.381830600927 0.9144 -0.0187124520783
0.37808743331 0.9144 -0.0190844684651
0.374333592488 0.9144 -0.0194472067761
0.370589727307 0.9144 -0.0198092475224
0.366835886485 0.9144 -0.0201719858335
0.363082045663 0.9144 -0.0205347241445
0.359337482916 0.9144 -0.0208867892503
0.355582246965 0.9144 -0.0212295762803
0.351827708578 0.9144 -0.0215823389509
0.348081750702 0.9144 -0.0219144527757
0.34432651475 0.9144 -0.0222572398057
0.340570581234 0.9144 -0.0225900511952
0.336824623358 0.9144 -0.02292216502
0.333067992277 0.9144 -0.0232450007691
0.329311361196 0.9144 -0.0235678365181
0.325564008191 0.9144 -0.0238799990619
0.321806679545 0.9144 -0.0241928591704
0.318049350899 0.9144 -0.0245057192789
0.314301300329 0.9144 -0.0248079061822
0.310543274119 0.9144 -0.0251107906503
0.306784550343 0.9144 -0.0254036994778
0.303025826568 0.9144 -0.0256966083053
0.299276380869 0.9144 -0.0259788439276
0.295516959529 0.9144 -0.0262617771146
0.291756840624 0.9144 -0.0265347346611
0.287996721719 0.9144 -0.0268076922076
0.28424588089 0.9144 -0.0270699765489
0.280485064421 0.9144 -0.0273329584549
0.276723550387 0.9144 -0.0275859647205
0.272962036352 0.9144 -0.027838970986
0.269209800394 0.9144 -0.0280813040462
0.26544689123 0.9144 -0.0283143590307
0.261683982066 0.9144 -0.0285474140153
0.257931048543 0.9144 -0.028779771435
0.25416674425 0.9144 -0.0289928751385
0.250402439957 0.9144 -0.029205978842
0.246638135664 0.9144 -0.0294190825455
0.242883109446 0.9144 -0.0296215130438
0.239117410024 0.9144 -0.0298146654663
0.235351013036 0.9144 -0.0299978422483
0.23159459169 0.9144 -0.0301803214655
0.227827497137 0.9144 -0.030353522607
0.224070378226 0.9144 -0.0305260261838
0.220301888544 0.9144 -0.0306792760443
0.216533398863 0.9144 -0.0308325259048
0.212774187257 0.9144 -0.03097510256
0.209004302446 0.9144 -0.0311084011395
0.205244393275 0.9144 -0.0312410021542
0.201473113335 0.9144 -0.0313543494527
0.197711809035 0.9144 -0.0314669991864
0.193949109605 0.9144 -0.0315596976392
0.190176434535 0.9144 -0.0316530936567
0.186413037541 0.9144 -0.0317358164689
0.182648942982 0.9144 -0.0318085636406
0.178874175218 0.9144 -0.0318720327366
0.175107987964 0.9144 -0.0319148529868
0.171341800711 0.9144 -0.031957673237
0.167574915893 0.9144 -0.0319905178467
0.163806635946 0.9144 -0.0320034111754
0.160038355998 0.9144 -0.0320163045042
0.156278656562 0.9144 -0.0320085489871
0.15250828392 0.9144 -0.0319915153943
0.148736516149 0.9144 -0.0319545305205
0.144974724019 0.9144 -0.031916848082
0.141201561118 0.9144 -0.0318599119272
0.137436978729 0.9144 -0.0317823269266
0.133671698774 0.9144 -0.0316947662856
0.129905721255 0.9144 -0.031597230004
0.126138348607 0.9144 -0.0314797424415
0.122500659285 0.9144 -0.0313531865373
0.119042531492 0.9144 -0.0312140744679
0.115744711512 0.9144 -0.0310737770032
0.112596526139 0.9144 -0.0309230160674
0.109608648579 0.9144 -0.0307710697364
0.106760429987 0.9144 -0.030609357499
0.104052567926 0.9144 -0.0304478549957
0.101465111115 0.9144 -0.0302879573562
0.0990073376316 0.9144 -0.030118991375
0.0966699693986 0.9144 -0.0299516302575
0.094443030776 0.9144 -0.0297865715684
0.0923165461231 0.9144 -0.0296245128724
0.0902997935157 0.9144 -0.0294547809643
0.0883742168023 0.9144 -0.0292987222546
0.0864572205999 0.9144 -0.0291220146991
0.0845309463218 0.9144 -0.0289559803489
0.0826132525547 0.9144 -0.028769297153
0.0806955587876 0.9144 -0.028582613957
0.0787771674558 0.9144 -0.0283859551205
0.0768580785592 0.9144 -0.0281793206435
0.0749389896627 0.9144 -0.0279726861666
0.0730185056366 0.9144 -0.0277461004086
0.0711079972511 0.9144 -0.0275188170859
0.0691875132251 0.9144 -0.0272922313279
0.06727560971 0.9144 -0.0270449967242
0.0653630086303 0.9144 -0.0267877864799
0.06345180268 0.9144 -0.0265505275167
0.0615248308372 0.9144 -0.026374517526
0.0596006492532 0.9144 -0.0262384100973
0.0576764676693 0.9144 -0.0261023026686
0.0557522860854 0.9144 -0.0259661952398
0.0538274069368 0.9144 -0.0258201121706
0.0519025277881 0.9144 -0.0256740291014
0.049967672999 0.9144 -0.0255286435969
0.0480427938504 0.9144 -0.0253825605277
0.046117217137 0.9144 -0.025226501818
0.0441816647831 0.9144 -0.025071140673
0.042255390505 0.9144 -0.0249051063227
0.0403198381511 0.9144 -0.0247497451778
0.0383835882325 0.9144 -0.0245844083923
0.0364473383138 0.9144 -0.0244190716068
0.0345103908305 0.9144 -0.0242437591808
0.0325741409119 0.9144 -0.0240784223953
0.0306378909932 0.9144 -0.0239130856098
0.0287649827413 0.9144 -0.0237934416384
0.0270078748834 0.9144 -0.0238962617512
0.0256593488177 0.9144 -0.0242511947733
0.0243565155661 0.9144 -0.0245427861287
0.021916249563 0.9144 -0.0250542563959
0.0186059417798 0.9144 -0.025165442638
0.0157300986939 0.9144 -0.0248953934845
0.0131511540325 0.9144 -0.0242838017634
0.0107992783121 0.9144 -0.0233355504277
0.00866058860004 0.9144 -0.0222821719034
0.00663763091979 0.9144 -0.0210202122273
0.0046875027162 0.9144 -0.0196529156283
0.0028074137303 0.9144 -0.0181403795445
0.00100873473207 0.9144 -0.0165018576919
-0.000563504527725 0.9144 -0.0149477458201
-0.00192946506427 0.9144 -0.0136197955904
-0.00310491277015 0.9144 -0.0125792559752
-0.00415297957789 0.9144 -0.0116400776287
-0.00510547536902 0.9144 -0.0106340697919
-0.00604499552653 0.9144 -0.00952691042047
-0.00703627684658 0.9144 -0.00825295541949
-0.00806055344347 0.9144 -0.00665050184667
-0.00917028404448 0.9144 -0.00454277843189
-0.00992026238486 0.9144 -0.00198887309125
-0.0102332638654 0.9144 0.00119705378694
-0.0094343643933 0.9144 0.00468126957152
-0.00737692935425 0.9144 0.00837378376379
-0.00415562711348 0.9144 0.0109046555254
-0.00198316690254 0.9144 0.0119487420313
6.78393867539e-05 0.9144 0.012292650742
0.00186701086311 0.9144 0.0119372889564
0.00318944428956 0.9144 0.0115185171419
0.00466688310726 0.9144 0.0108900471427
0.00621736113579 0.9144 0.0105072705981
0.00797788845521 0.9144 0.0109912577442
0.00961166407902 0.9144 0.0119976757543
0.0112909227827 0.9144 0.0129270788993
0.0130049913611 0.9144 0.0137887452551
0.0147424990442 0.9144 0.0146019285377
0.016503445832 0.9144 0.0153666287474
0.0182878317244 0.9144 0.016082845884
0.0200849835164 0.9144 0.0167598580233
0.021894203643 0.9144 0.0174076408059
0.0237055164638 0.9144 0.0180254966669
0.0255388732599 0.9144 0.018614820736
0.0273743227502 0.9144 0.0191742178835
0.0292218405752 0.9144 0.0197043856742
0.0310707535296 0.9144 0.020214602184
0.0329203640488 0.9144 0.0207148430532
0.0347820429028 0.9144 0.0211858545657
0.0366550925267 0.9144 0.0216376123619
0.0385195616395 0.9144 0.0220687213123
0.0403947039576 0.9144 0.022490552187
0.0422712414052 0.9144 0.0228924317807
0.0441491739823 0.9144 0.0232743600934
0.0460370821998 0.9144 0.0236569859708
0.0479171074711 0.9144 0.0240089873619
0.0498071083829 0.9144 0.0243616863179
0.0516985044241 0.9144 0.0246944339928
0.0535905980301 0.9144 0.0250172060272
0.0554833892008 0.9144 0.0253300024211
0.0573868535768 0.9144 0.0256335207392
0.059281039877 0.9144 0.0259263658521
0.0611759237419 0.9144 0.0262092353245
0.0630814808121 0.9144 0.0264828267211
0.0649784573712 0.9144 0.026735769272
0.0668854095709 0.9144 0.0269894093876
0.0687930593353 0.9144 0.0272330738627
0.0706907334592 0.9144 0.0274760407731
0.072599778353 0.9144 0.0276997539672
0.0745088232469 0.9144 0.0279234671613
0.0764185657055 0.9144 0.0281372047149
0.0783290057288 0.9144 0.028340966628
0.0802301676764 0.9144 0.0285340553359
0.0821413052645 0.9144 0.0287278416085
0.0840531404173 0.9144 0.0289116522406
0.0859656731348 0.9144 0.0290854872322
0.0878789034171 0.9144 0.0292493465833
0.0897322798564 0.9144 0.029409020546
0.0916654614197 0.9144 0.0295742750266
0.093709770158 0.9144 0.0297272514382
0.0958431620961 0.9144 0.029896481573
0.0980976568496 0.9144 0.0300541312037
0.100451908008 0.9144 0.0302187564817
0.102936540058 0.9144 0.0303824744609
0.105542274924 0.9144 0.0305346119358
0.108277693115 0.9144 0.0306958177524
0.111144189763 0.9144 0.0308461406295
0.114161018584 0.9144 0.0309969513372
0.117328877141 0.9144 0.031138274235
0.120657043511 0.9144 0.031280782528
0.124146215258 0.9144 0.0314145005758
0.127817041229 0.9144 0.0315308478674
0.131608272451 0.9144 0.0316455902954
0.135390923161 0.9144 0.0317396838776
0.139174271436 0.9144 0.0318238018193
0.142968990482 0.9144 0.0318886660447
0.146755129016 0.9144 0.0319328814244
0.15054126755 0.9144 0.0319770968041
0.154328801214 0.9144 0.0320013609028
0.158117032442 0.9144 0.032015649361
0.16189668316 0.9144 0.0320092889735
0.165686309517 0.9144 0.0320036261506
0.169477331005 0.9144 0.0319780120468
0.173259074416 0.9144 0.0319417247378
0.177051491033 0.9144 0.0318961593529
0.180834629574 0.9144 0.0318399207629
0.18461846568 0.9144 0.0317737065323
0.188412974991 0.9144 0.031698214226
0.192198903791 0.9144 0.0316020730739
0.195984832591 0.9144 0.0315059319218
0.199770761391 0.9144 0.0314097907697
0.203558085321 0.9144 0.0312936983366
0.207336131175 0.9144 0.0311669326983
0.211124850234 0.9144 0.0310308889842
0.214903593652 0.9144 0.0308941477054
0.218693010276 0.9144 0.0307481283508
0.222473148824 0.9144 0.030591435791
0.226263960577 0.9144 0.0304254651554
0.23004479669 0.9144 0.030258796955
0.233827027932 0.9144 0.0300721774737
0.237609259174 0.9144 0.0298855579924
0.241391490416 0.9144 0.029698938511
0.245174419223 0.9144 0.0295023433892
0.248958045595 0.9144 0.0292957726268
0.25273239389 0.9144 0.0290785286593
0.256516717827 0.9144 0.0288619822564
0.260301739328 0.9144 0.0286354602131
0.264077482753 0.9144 0.0283982649645
0.267863201819 0.9144 0.0281617672806
0.271638945244 0.9144 0.027924572032
0.275415386235 0.9144 0.0276774011429
0.279192524789 0.9144 0.0274202546133
0.282969663344 0.9144 0.0271631080838
0.286747499464 0.9144 0.0268959859137
0.290526033148 0.9144 0.0266188881031
0.294303869268 0.9144 0.026351765933
0.298083100517 0.9144 0.0260646924819
0.301862331766 0.9144 0.0257776190308
0.305631587374 0.9144 0.0254898480149
0.309411516188 0.9144 0.0251927989233
0.313191445002 0.9144 0.0248957498317
0.31696209574 0.9144 0.0245880275349
0.320732746478 0.9144 0.024280305238
0.324513372856 0.9144 0.0239732805059
0.328284721159 0.9144 0.0236555825686
0.332056767026 0.9144 0.0233279089907
0.335828812894 0.9144 0.0230002354129
0.339600858761 0.9144 0.022672561835
0.343372904629 0.9144 0.0223448882572
0.347145648061 0.9144 0.0220072390388
0.350919089058 0.9144 0.0216596141799
0.354692530055 0.9144 0.0213119893211
0.358465971052 0.9144 0.0209643644622
0.362230133973 0.9144 0.0206060663981
0.366004272535 0.9144 0.0202484658988
0.369778411097 0.9144 0.0198908653994
0.373543271583 0.9144 0.0195225916948
0.377318107709 0.9144 0.019155015555
0.381082968195 0.9144 0.0187867418504
0.384848526246 0.9144 0.0184084925053
0.388624059937 0.9144 0.0180309407249
0.392390315552 0.9144 0.0176427157393
0.396155873603 0.9144 0.0172644663942
0.399922826783 0.9144 0.0168662657681
0.403689082398 0.9144 0.0164780407825
0.407456035578 0.9144 0.0160798401564
0.411222988759 0.9144 0.0156816395303
0.414990639503 0.9144 0.0152734632637
0.418748314608 0.9144 0.0148645894323
0.422515965353 0.9144 0.0144564131657
0.426284313662 0.9144 0.0140382612586
0.430042686331 0.9144 0.0136194117868
0.433811034641 0.9144 0.0132012598796
0.437570104875 0.9144 0.0127724347673
0.441339150749 0.9144 0.0123443072197
0.445098220983 0.9144 0.0119154821073
0.448857988782 0.9144 0.0114766813545
0.45261775658 0.9144 0.0110378806016
0.456387500019 0.9144 0.0105997774135
0.460147965383 0.9144 0.0101510010202
0.463908430746 0.9144 0.00970222462679
0.467659618034 0.9144 0.0092427750282
0.471420780962 0.9144 0.00878402299434
0.47518194389 0.9144 0.00832527096048
0.478943804383 0.9144 0.00785654328612
0.48269499167 0.9144 0.00739709368752
0.486457549728 0.9144 0.00691839037266
0.490210132145 0.9144 0.00643898949306
0.493972690202 0.9144 0.00596028617819
0.497725272619 0.9144 0.00548088529859
0.501478552601 0.9144 0.00499150877849
0.505241808223 0.9144 0.00450282982312
0.50899578577 0.9144 0.00400347766251
0.512749763316 0.9144 0.00350412550191
0.516504438428 0.9144 0.0029947977008
0.520249137898 0.9144 0.00248477233495
0.52400381301 0.9144 0.00197544453384
0.527749210045 0.9144 0.00145544352749
0.530097041749 0.9144 0.00113844780245
0.531555158488 0.9144 0.000929652269065
0.532476195504 0.9144 0.000803593490622
0.533043202149 0.9144 0.000722949429888
0.533397930084 0.9144 0.000667559071678
0.533395627656 0.9144 0.000557129461412
0.533403300868 0.9144 0.000447397415883
0.53340099844 0.9144 0.000336967805617
0.533398696011 0.9144 0.000226538195351
0.533396393583 0.9144 0.000116108585085
0.53340476436 0.9144 -3.59910094617e-06

ZONE T="SLICE_Y_0p9144_BINS03_KS_0p5334mm_SINGLE_LAYER"
0.53340476436 0.9144 -3.59910094617e-06
0.533402461931 0.9144 -0.000114028711212
0.533400159503 0.9144 -0.000224458321478
0.533397857075 0.9144 -0.000334887931744
0.533395554646 0.9144 -0.00044531754201
0.533403227858 0.9144 -0.000555049587539
0.533401622995 0.9144 -0.000675454838307
0.533043895066 0.9144 -0.000720518449861
0.532468098176 0.9144 -0.000800879766643
0.531555222203 0.9144 -0.000934885206005
0.530095778696 0.9144 -0.00113718362744
0.527752688574 0.9144 -0.00146141915351
0.524009311223 0.9144 -0.00197379207209
0.520275909512 0.9144 -0.00248546742594
0.516542507801 0.9144 -0.00299714277978
0.512808408526 0.9144 -0.00349884249312
0.509073611686 0.9144 -0.00399056656596
0.505338814846 0.9144 -0.00448229063879
0.501604018006 0.9144 -0.00497401471163
0.497869221166 0.9144 -0.00546573878447
0.494133726761 0.9144 -0.0059474872168
0.490387559151 0.9144 -0.00641995757337
0.486651367182 0.9144 -0.00689173036521
0.482915175212 0.9144 -0.00736350315704
0.479178983243 0.9144 -0.00783527594887
0.475442093709 0.9144 -0.0082970731002
0.47170450661 0.9144 -0.00874889461103
0.467957641435 0.9144 -0.0092113893271
0.464220054336 0.9144 -0.00966321083792
0.460481769672 0.9144 -0.0101050567082
0.456734206933 0.9144 -0.0105575757838
0.452995922269 0.9144 -0.0109994216541
0.449256940041 0.9144 -0.011431291884
0.445507982172 0.9144 -0.0118638596785
0.441768999943 0.9144 -0.0122957299083
0.438030017715 0.9144 -0.0127276001382
0.434280362281 0.9144 -0.0131501922922
0.430539984923 0.9144 -0.013562111241
0.42679032949 0.9144 -0.0139847033951
0.423049952132 0.9144 -0.0143966223439
0.419309574774 0.9144 -0.0148085412927
0.415558524211 0.9144 -0.0152111821658
0.411817449288 0.9144 -0.0156131254741
0.408066398725 0.9144 -0.0160157663471
0.404324626237 0.9144 -0.016407734015
0.400572878109 0.9144 -0.0168003992475
0.396831105622 0.9144 -0.0171923669153
0.393078659929 0.9144 -0.0175750565074
0.389336189877 0.9144 -0.0179570485347
0.385583744185 0.9144 -0.0183397381267
0.381830600927 0.9144 -0.0187124520783
0.37808743331 0.9144 -0.0190844684651
0.374333592488 0.9144 -0.0194472067761
0.370589727307 0.9144 -0.0198092475224
0.366835886485 0.9144 -0.0201719858335
0.363082045663 0.9144 -0.0205347241445
0.359337482916 0.9144 -0.0208867892503
0.355582246965 0.9144 -0.0212295762803
0.351827708578 0.9144 -0.0215823389509
0.348081750702 0.9144 -0.0219144527757
0.34432651475 0.9144 -0.0222572398057
0.340570581234 0.9144 -0.0225900511952
0.336824623358 0.9144 -0.02292216502
0.333067992277 0.9144 -0.0232450007691
0.329311361196 0.9144 -0.0235678365181
0.325564008191 0.9144 -0.0238799990619
0.321806679545 0.9144 -0.0241928591704
0.318049350899 0.9144 -0.0245057192789
0.314301300329 0.9144 -0.0248079061822
0.310543274119 0.9144 -0.0251107906503
0.306784550343 0.9144 -0.0254036994778
0.303025826568 0.9144 -0.0256966083053
0.299276380869 0.9144 -0.0259788439276
0.295516959529 0.9144 -0.0262617771146
0.291756840624 0.9144 -0.0265347346611
0.287996721719 0.9144 -0.0268076922076
0.28424588089 0.9144 -0.0270699765489
0.280485064421 0.9144 -0.0273329584549
0.276723550387 0.9144 -0.0275859647205
0.272962036352 0.9144 -0.027838970986
0.269209800394 0.9144 -0.0280813040462
0.26544689123 0.9144 -0.0283143590307
0.261683982066 0.9144 -0.0285474140153
0.257931048543 0.9144 -0.028779771435
0.25416674425 0.9144 -0.0289928751385
0.250402439957 0.9144 -0.029205978842
0.246638135664 0.9144 -0.0294190825455
0.242883109446 0.9144 -0.0296215130438
0.239117410024 0.9144 -0.0298146654663
0.235351013036 0.9144 -0.0299978422483
0.23159459169 0.9144 -0.0301803214655
0.227827497137 0.9144 -0.030353522607
0.224070378226 0.9144 -0.0305260261838
0.220301888544 0.9144 -0.0306792760443
0.216533398863 0.9144 -0.0308325259048
0.212774187257 0.9144 -0.03097510256
0.209004302446 0.9144 -0.0311084011395
0.205244393275 0.9144 -0.0312410021542
0.201473113335 0.9144 -0.0313543494527
0.197711809035 0.9144 -0.0314669991864
0.193949109605 0.9144 -0.0315596976392
0.190176434535 0.9144 -0.0316530936567
0.186413037541 0.9144 -0.0317358164689
0.182648942982 0.9144 -0.0318085636406
0.178874175218 0.9144 -0.0318720327366
0.175107987964 0.9144 -0.0319148529868
0.171341800711 0.9144 -0.031957673237
0.167574915893 0.9144 -0.0319905178467
0.163806635946 0.9144 -0.0320034111754
0.160038355998 0.9144 -0.0320163045042
0.156278656562 0.9144 -0.0320085489871
0.15250828392 0.9144 -0.0319915153943
0.148736516149 0.9144 -0.0319545305205
0.144974724019 0.9144 -0.031916848082
0.141201561118 0.9144 -0.0318599119272
0.137439071423 0.9144 -0.0318122538482
0.133675884163 0.9144 -0.0317546201286
0.129902023697 0.9144 -0.0316877083333
0.126136743743 0.9144 -0.0316001476923
0.122501147115 0.9144 -0.0315035187096
0.119035136376 0.9144 -0.0313950311264
0.11572943345 0.9144 -0.031285358148
0.112593316412 0.9144 -0.031163826569
0.109597555906 0.9144 -0.0310425047241
0.106741454367 0.9144 -0.030911416973
0.104035685 0.9144 -0.0307798413913
0.101449623319 0.9144 -0.0306398950327
0.0989839668891 0.9144 -0.0305015535378
0.0966387157099 0.9144 -0.0303648169066
0.0944138697814 0.9144 -0.030229685139
0.092288780258 0.9144 -0.030087577724
0.0902641447043 0.9144 -0.0299484703021
0.0883299874799 0.9144 -0.0298130604381
0.0864051083312 0.9144 -0.0296669773689
0.0844802291826 0.9144 -0.0295208942997
0.0825546524692 0.9144 -0.02936483559
0.0806290757558 0.9144 -0.0292087768803
0.0787120795535 0.9144 -0.0290320693248
0.0767858052754 0.9144 -0.0288660349746
0.0748581358678 0.9144 -0.0286800493433
0.0729404421007 0.9144 -0.0284933661474
0.0710120751283 0.9144 -0.0282974048756
0.0690929862318 0.9144 -0.0280907703987
0.0671738973352 0.9144 -0.0278841359217
0.0652541108739 0.9144 -0.0276675258042
0.0633336268479 0.9144 -0.0274409400462
0.0614124452571 0.9144 -0.0272043786477
0.0594912636663 0.9144 -0.0269678172493
0.0575786625866 0.9144 -0.026710607005
0.0556674566363 0.9144 -0.0264733480418
0.0537583433802 0.9144 -0.0262660160001
0.0518306739726 0.9144 -0.0260800303689
0.0499129802055 0.9144 -0.0258933471729
0.0479853107979 0.9144 -0.0257073615417
0.0460569438256 0.9144 -0.0255114002699
0.0441285768533 0.9144 -0.0253154389982
0.0422002098809 0.9144 -0.0251194777265
0.0402704477791 0.9144 -0.0249035651737
0.0383314076016 0.9144 -0.0246983258262
0.0364016454997 0.9144 -0.0244824132735
0.0344711858332 0.9144 -0.0242565250802
0.0325307505262 0.9144 -0.0240313344517
0.0305896176544 0.9144 -0.0237961681827
0.0286584604231 0.9144 -0.023560304349
0.0267194202455 0.9144 -0.0233550650015
0.024911458524 0.9144 -0.0231607085934
0.0231327945214 0.9144 -0.0233853290864
0.0218956053649 0.9144 -0.0236121836456
0.0203642396806 0.9144 -0.0237894380987
0.0172147275408 0.9144 -0.0240497711178
0.0140504981792 0.9144 -0.0236695704504
0.0113959337822 0.9144 -0.0231234130902
0.00894730164984 0.9144 -0.0220816834322
0.00679166064993 0.9144 -0.0209292460675
0.00478098103858 0.9144 -0.0195561592165
0.00288233590115 0.9144 -0.018064969543
0.00107437882716 0.9144 -0.0164371208957
-0.000497860432632 0.9144 -0.0148830090239
-0.00186451853392 0.9144 -0.0135450831537
-0.00302999059929 0.9144 -0.0125038459738
-0.00408803304753 0.9144 -0.0115653651921
-0.00502057755766 0.9144 -0.0105579622257
-0.00599211733089 0.9144 -0.00942296862702
-0.0069349155779 0.9144 -0.00812557452135
-0.00801395333046 0.9144 -0.00645677928869
-0.00898751278812 0.9144 -0.00428941176508
-0.00975932536955 0.9144 -0.00156661810064
-0.00979370648072 0.9144 0.00164881623071
-0.00880366497545 0.9144 0.00526669099607
-0.00639959468138 0.9144 0.00873283381211
-0.00409919273195 0.9144 0.0105276738805
-0.00226311403914 0.9144 0.0115081406233
-0.000334605694835 0.9144 0.0118835811192
0.00118936487367 0.9144 0.0118798789138
0.0027286818664 0.9144 0.0116567126173
0.00420744745138 0.9144 0.0114393365728
0.00569591058048 0.9144 0.0115133467972
0.00737614494532 0.9144 0.0121420855977
0.00917908698931 0.9144 0.0128796491448
0.010994097368 0.9144 0.0135879833351
0.0128118980057 0.9144 0.0142564149634
0.0146324889023 0.9144 0.0148849440297
0.0164651481336 0.9144 0.0154842437392
0.0182764609545 0.9144 0.0161020996003
0.0200849835164 0.9144 0.0167598580233
0.021894203643 0.9144 0.0174076408059
0.0237055164638 0.9144 0.0180254966669
0.0255388732599 0.9144 0.018614820736
0.0273743227502 0.9144 0.0191742178835
0.0292218405752 0.9144 0.0197043856742
0.0310707535296 0.9144 0.020214602184
0.0329203640488 0.9144 0.0207148430532
0.0347820429028 0.9144 0.0211858545657
0.0366550925267 0.9144 0.0216376123619
0.0385195616395 0.9144 0.0220687213123
0.0403947039576 0.9144 0.022490552187
0.0422712414052 0.9144 0.0228924317807
0.0441491739823 0.9144 0.0232743600934
0.0460370821998 0.9144 0.0236569859708
0.0479171074711 0.9144 0.0240089873619
0.0498071083829 0.9144 0.0243616863179
0.0516985044241 0.9144 0.0246944339928
0.0535905980301 0.9144 0.0250172060272
0.0554833892008 0.9144 0.0253300024211
0.0573868535768 0.9144 0.0256335207392
0.059281039877 0.9144 0.0259263658521
0.0611759237419 0.9144 0.0262092353245
0.0630814808121 0.9144 0.0264828267211
0.0649784573712 0.9144 0.026735769272
0.0668854095709 0.9144 0.0269894093876
0.0687930593353 0.9144 0.0272330738627
0.0706907334592 0.9144 0.0274760407731
0.072599778353 0.9144 0.0276997539672
0.0745088232469 0.9144 0.0279234671613
0.0764185657055 0.9144 0.0281372047149
0.0783290057288 0.9144 0.028340966628
0.0802301676764 0.9144 0.0285340553359
0.0821413052645 0.9144 0.0287278416085
0.0840531404173 0.9144 0.0289116522406
0.0859656731348 0.9144 0.0290854872322
0.0878789034171 0.9144 0.0292493465833
0.0897322798564 0.9144 0.029409020546
0.0916654614197 0.9144 0.0295742750266
0.093709770158 0.9144 0.0297272514382
0.0958431620961 0.9144 0.029896481573
0.0980976568496 0.9144 0.0300541312037
0.100451908008 0.9144 0.0302187564817
0.102936540058 0.9144 0.0303824744609
0.105542274924 0.9144 0.0305346119358
0.108277693115 0.9144 0.0306958177524
0.111144189763 0.9144 0.0308461406295
0.114161018584 0.9144 0.0309969513372
0.117328877141 0.9144 0.031138274235
0.120657043511 0.9144 0.031280782528
0.124146215258 0.9144 0.0314145005758
0.127817041229 0.9144 0.0315308478674
0.131608272451 0.9144 0.0316455902954
0.135390923161 0.9144 0.0317396838776
0.139174271436 0.9144 0.0318238018193
0.142968990482 0.9144 0.0318886660447
0.146755129016 0.9144 0.0319328814244
0.15054126755 0.9144 0.0319770968041
0.154328801214 0.9144 0.0320013609028
0.158117032442 0.9144 0.032015649361
0.16189668316 0.9144 0.0320092889735
0.165686309517 0.9144 0.0320036261506
0.169477331005 0.9144 0.0319780120468
0.173259074416 0.9144 0.0319417247378
0.177051491033 0.9144 0.0318961593529
0.180834629574 0.9144 0.0318399207629
0.18461846568 0.9144 0.0317737065323
0.188412974991 0.9144 0.031698214226
0.192198903791 0.9144 0.0316020730739
0.195984832591 0.9144 0.0315059319218
0.199770761391 0.9144 0.0314097907697
0.203558085321 0.9144 0.0312936983366
0.207336131175 0.9144 0.0311669326983
0.211124850234 0.9144 0.0310308889842
0.214903593652 0.9144 0.0308941477054
0.218693010276 0.9144 0.0307481283508
0.222473148824 0.9144 0.030591435791
0.226263960577 0.9144 0.0304254651554
0.23004479669 0.9144 0.030258796955
0.233827027932 0.9144 0.0300721774737
0.237609259174 0.9144 0.0298855579924
0.241391490416 0.9144 0.029698938511
0.245174419223 0.9144 0.0295023433892
0.248958045595 0.9144 0.0292957726268
0.25273239389 0.9144 0.0290785286593
0.256516717827 0.9144 0.0288619822564
0.260301739328 0.9144 0.0286354602131
0.264077482753 0.9144 0.0283982649645
0.267863201819 0.9144 0.0281617672806
0.271638945244 0.9144 0.027924572032
0.275415386235 0.9144 0.0276774011429
0.279192524789 0.9144 0.0274202546133
0.282969663344 0.9144 0.0271631080838
0.286747499464 0.9144 0.0268959859137
0.290526033148 0.9144 0.0266188881031
0.294303869268 0.9144 0.026351765933
0.298083100517 0.9144 0.0260646924819
0.301862331766 0.9144 0.0257776190308
0.305631587374 0.9144 0.0254898480149
0.309411516188 0.9144 0.0251927989233
0.313191445002 0.9144 0.0248957498317
0.31696209574 0.9144 0.0245880275349
0.320732746478 0.9144 0.024280305238
0.324513372856 0.9144 0.0239732805059
0.328284721159 0.9144 0.0236555825686
0.332056767026 0.9144 0.0233279089907
0.335828812894 0.9144 0.0230002354129
0.339600858761 0.9144 0.022672561835
0.343372904629 0.9144 0.0223448882572
0.347145648061 0.9144 0.0220072390388
0.350919089058 0.9144 0.0216596141799
0.354692530055 0.9144 0.0213119893211
0.358465971052 0.9144 0.0209643644622
0.362230133973 0.9144 0.0206060663981
0.366004272535 0.9144 0.0202484658988
0.369778411097 0.9144 0.0198908653994
0.373543271583 0.9144 0.0195225916948
0.377318107709 0.9144 0.019155015555
0.381082968195 0.9144 0.0187867418504
0.384848526246 0.9144 0.0184084925053
0.388624059937 0.9144 0.0180309407249
0.392390315552 0.9144 0.0176427157393
0.396155873603 0.9144 0.0172644663942
0.399922826783 0.9144 0.0168662657681
0.403689082398 0.9144 0.0164780407825
0.407456035578 0.9144 0.0160798401564
0.411222988759 0.9144 0.0156816395303
0.414990639503 0.9144 0.0152734632637
0.418748314608 0.9144 0.0148645894323
0.422515965353 0.9144 0.0144564131657
0.426284313662 0.9144 0.0140382612586
0.430042686331 0.9144 0.0136194117868
0.433811034641 0.9144 0.0132012598796
0.437570104875 0.9144 0.0127724347673
0.441339150749 0.9144 0.0123443072197
0.445098220983 0.9144 0.0119154821073
0.448857988782 0.9144 0.0114766813545
0.45261775658 0.9144 0.0110378806016
0.456387500019 0.9144 0.0105997774135
0.460147965383 0.9144 0.0101510010202
0.463908430746 0.9144 0.00970222462679
0.467659618034 0.9144 0.0092427750282
0.471420780962 0.9144 0.00878402299434
0.47518194389 0.9144 0.00832527096048
0.478943804383 0.9144 0.00785654328612
0.48269499167 0.9144 0.00739709368752
0.486457549728 0.9144 0.00691839037266
0.490210132145 0.9144 0.00643898949306
0.493972690202 0.9144 0.00596028617819
0.497725272619 0.9144 0.00548088529859
0.501478552601 0.9144 0.00499150877849
0.505241808223 0.9144 0.00450282982312
0.50899578577 0.9144 0.00400347766251
0.512749763316 0.9144 0.00350412550191
0.516504438428 0.9144 0.0029947977008
0.520249137898 0.9144 0.00248477233495
0.52400381301 0.9144 0.00197544453384
0.527749210045 0.9144 0.00145544352749
0.530097041749 0.9144 0.00113844780245
0.531555158488 0.9144 0.000929652269065
0.532476195504 0.9144 0.000803593490622
0.533043202149 0.9144 0.000722949429888
0.533397930084 0.9144 0.000667559071678
0.533395627656 0.9144 0.000557129461412
0.533403300868 0.9144 0.000447397415883
0.53340099844 0.9144 0.000336967805617
0.533398696011 0.9144 0.000226538195351
0.533396393583 0.9144 0.000116108585085
0.53340476436 0.9144 -3.59910094617e-06

ZONE T="SLICE_Y_0p9144_BINS07_KS_0p5334mm_SINGLE_LAYER"
0.53340476436 0.9144 -3.59910094617e-06
0.533402461931 0.9144 -0.000114028711212
0.533400159503 0.9144 -0.000224458321478
0.533397857075 0.9144 -0.000334887931744
0.533395554646 0.9144 -0.00044531754201
0.533403227858 0.9144 -0.000555049587539
0.533401622995 0.9144 -0.000675454838307
0.533043895066 0.9144 -0.000720518449861
0.532468098176 0.9144 -0.000800879766643
0.531555222203 0.9144 -0.000934885206005
0.530095778696 0.9144 -0.00113718362744
0.527752688574 0.9144 -0.00146141915351
0.524009311223 0.9144 -0.00197379207209
0.520275909512 0.9144 -0.00248546742594