#+++++++++++++++++++++++++++++++++++++++++++++++++++++++++++++++++++++++++++++++++++++++++++++++++++++++++++++++++++++++++++++++++
#
#   IPW-3 Cut/Slice DATA SUBMITTAL FORM for Test Case NACA0012_AE3932, May 18th 2026
#
#       NOMENCLATURE:
#                  X [m]:  X-coordinate of the surface (clean for reference)
#                  Y [m]:  Y-coordinate of the surface (clean for reference)
#                  Z [m]:  Z-coordinate of the surface (clean for reference)
#                 Cp [-]:  Pressure coefficient
#            HTC [W/m2K]:  Convective Heat Transfer Coefficient (on the rough surface)
#               Beta [-]:  Collection efficiency
#                 Ts [K]:  Surface temperature
#                 FF [-]:  Freezing fraction
#                  k [m]:  Surface roughness height if variable (OPTIONAL)
#         RhoIce [kg/m3]:  Ice density (OPTIONAL)
#      HTC_CLEAN [W/m2K]:  Convective Heat Transfer Coefficient on the surface without roughness (OPTIONAL)
#
#                XXmm:  Roughness height used for the case, in mm.
#                       In the zone name, use the format KS_XXmm.
#                       For example, if k_s = 1.5 mm, use KS_1p5mm. 
#                       For Variable roughness, use KS_VAR
#
#    FLOW CONDITIONS:
#                                   AOA: 4.0 deg
#                           Mach Number: 0.3151 [-]
#       Mean aerodynamic chord (M.A.C.): 0.5334 [m]
#                       Reynolds Number: 3.9795 million (based on MAC)
#                       Freestream Temp: 267.55 [K]
#                        Reference area: 0.97548 [m2]
#               Moment Reference Center: 0.13335, 0, 0 [m] (X, Y, Z)
#
#    ICING CONDITIONS:
#                           Icing Time: 420 [s]
#                                  LWC: 0.55 [g/m3]
#                                  MVD: 20 [μm]
#
#              NOTES: 1. Please use at least 5 decimal places in the numerical values
#                     2. If data are NOT provided, please fill data fields with a numerical value of "-999" 
#
#++++++++++++++++++++++++++++++++++++++++++++++++++++++++++++++++++++++++++++++++++++++++++++++++++++++++++++++++++++

                                                    <- Optional ->                 
VARIABLES = "X" "Y" "Z" "Cp" "HTC" "Beta" "Ts" "FF" "k" "RhoIce" "HTC_CLEAN"


ZONE T="SLICE_Y_0p9144_BINS01_KS_0p5mm_CUTDATA"
0.53243 0.91440 -0.02791 0.08019 156.64264 0.00000 272.12893 0.00000 -999.00000 680.00000 -999.00000 
0.53242 0.91440 -0.02802 0.08006 156.03020 0.00000 272.12850 0.00000 -999.00000 680.00000 -999.00000 
0.53241 0.91440 -0.02813 0.07757 143.45111 0.00000 272.11914 0.00000 -999.00000 680.00000 -999.00000 
0.53240 0.91440 -0.02824 0.07026 124.43858 0.00000 272.10036 0.00000 -999.00000 680.00000 -999.00000 
0.53239 0.91440 -0.02835 0.06077 97.23617 0.00000 272.06137 0.00000 -999.00000 680.00000 -999.00000 
0.53239 0.91440 -0.02846 -0.00318 120.56141 0.00000 272.04294 0.00000 -999.00000 680.00000 -999.00000 
0.53238 0.91440 -0.02858 -0.06265 161.15746 0.00000 272.05204 0.00000 -999.00000 680.00000 -999.00000 
0.53202 0.91440 -0.02860 0.15022 282.46407 0.00000 272.20709 0.00000 -999.00000 680.00000 -999.00000 
0.53144 0.91440 -0.02864 0.10781 278.13085 0.00000 272.18269 0.00000 -999.00000 680.00000 -999.00000 
0.53052 0.91440 -0.02871 0.11135 265.03353 0.00000 272.18226 0.00000 -999.00000 680.00000 -999.00000 
0.52905 0.91440 -0.02881 0.10714 262.53215 0.00000 272.17942 0.00000 -999.00000 680.00000 -999.00000 
0.52669 0.91440 -0.02897 0.10162 262.96904 0.00000 272.17643 0.00000 -999.00000 680.00000 -999.00000 
0.52292 0.91440 -0.02922 0.09499 265.66106 0.00000 272.17327 0.00000 -999.00000 680.00000 -999.00000 
0.51916 0.91440 -0.02947 0.08912 269.18168 0.00000 272.17068 0.00000 -999.00000 680.00000 -999.00000 
0.51540 0.91440 -0.02972 0.08289 272.65820 0.00000 272.16786 0.00000 -999.00000 680.00000 -999.00000 
0.51164 0.91440 -0.02996 0.07696 275.89674 0.00000 272.16515 0.00000 -999.00000 680.00000 -999.00000 
0.50788 0.91440 -0.03019 0.07127 278.87522 0.00000 272.16252 0.00000 -999.00000 680.00000 -999.00000 
0.50412 0.91440 -0.03042 0.06580 281.63524 0.00000 272.15995 0.00000 -999.00000 680.00000 -999.00000 
0.50036 0.91440 -0.03065 0.06060 284.23426 0.00000 272.15749 0.00000 -999.00000 680.00000 -999.00000 
0.49660 0.91440 -0.03088 0.05564 286.69267 0.00000 272.15514 0.00000 -999.00000 680.00000 -999.00000 
0.49284 0.91440 -0.03110 0.05090 289.02116 0.00000 272.15288 0.00000 -999.00000 680.00000 -999.00000 
0.48907 0.91440 -0.03131 0.04636 291.23468 0.00000 272.15071 0.00000 -999.00000 680.00000 -999.00000 
0.48531 0.91440 -0.03152 0.04201 293.34295 0.00000 272.14862 0.00000 -999.00000 680.00000 -999.00000 
0.48155 0.91440 -0.03173 0.03784 295.35808 0.00000 272.14660 0.00000 -999.00000 680.00000 -999.00000 
0.47779 0.91440 -0.03194 0.03383 297.28683 0.00000 272.14466 0.00000 -999.00000 680.00000 -999.00000 
0.47403 0.91440 -0.03214 0.02997 299.13641 0.00000 272.14279 0.00000 -999.00000 680.00000 -999.00000 
0.47027 0.91440 -0.03233 0.02624 300.91562 0.00000 272.14098 0.00000 -999.00000 680.00000 -999.00000 
0.46650 0.91440 -0.03253 0.02265 302.63428 0.00000 272.13923 0.00000 -999.00000 680.00000 -999.00000 
0.46274 0.91440 -0.03272 0.01920 304.29263 0.00000 272.13754 0.00000 -999.00000 680.00000 -999.00000 
0.45898 0.91440 -0.03290 0.01583 305.89538 0.00000 272.13589 0.00000 -999.00000 680.00000 -999.00000 
0.45521 0.91440 -0.03309 0.01259 307.45693 0.00000 272.13431 0.00000 -999.00000 680.00000 -999.00000 
0.45145 0.91440 -0.03327 0.00944 308.97536 0.00000 272.13276 0.00000 -999.00000 680.00000 -999.00000 
0.44769 0.91440 -0.03344 0.00639 310.45724 0.00000 272.13126 0.00000 -999.00000 680.00000 -999.00000 
0.44392 0.91440 -0.03361 0.00344 311.90319 0.00000 272.12982 0.00000 -999.00000 680.00000 -999.00000 
0.44016 0.91440 -0.03378 0.00054 313.31566 0.00000 272.12839 0.00000 -999.00000 680.00000 -999.00000 
0.43640 0.91440 -0.03395 -0.00225 314.70430 0.00000 272.12702 0.00000 -999.00000 680.00000 -999.00000 
0.43263 0.91440 -0.03411 -0.00498 316.06169 0.00000 272.12568 0.00000 -999.00000 680.00000 -999.00000 
0.42887 0.91440 -0.03426 -0.00766 317.39678 0.00000 272.12435 0.00000 -999.00000 680.00000 -999.00000 
0.42510 0.91440 -0.03442 -0.01026 318.71878 0.00000 272.12307 0.00000 -999.00000 680.00000 -999.00000 
0.42134 0.91440 -0.03457 -0.01279 320.01449 0.00000 272.12183 0.00000 -999.00000 680.00000 -999.00000 
0.41758 0.91440 -0.03472 -0.01528 321.28462 0.00000 272.12060 0.00000 -999.00000 680.00000 -999.00000 
0.41381 0.91440 -0.03486 -0.01771 322.54103 0.00000 272.11941 0.00000 -999.00000 680.00000 -999.00000 
0.41005 0.91440 -0.03500 -0.02009 323.78416 0.00000 272.11823 0.00000 -999.00000 680.00000 -999.00000 
0.40628 0.91440 -0.03514 -0.02242 325.01398 0.00000 272.11708 0.00000 -999.00000 680.00000 -999.00000 
0.40252 0.91440 -0.03527 -0.02471 326.23079 0.00000 272.11595 0.00000 -999.00000 680.00000 -999.00000 
0.39875 0.91440 -0.03540 -0.02695 327.43506 0.00000 272.11485 0.00000 -999.00000 680.00000 -999.00000 
0.39499 0.91440 -0.03553 -0.02914 328.62403 0.00000 272.11377 0.00000 -999.00000 680.00000 -999.00000 
0.39122 0.91440 -0.03565 -0.03131 329.80075 0.00000 272.11270 0.00000 -999.00000 680.00000 -999.00000 
0.38746 0.91440 -0.03577 -0.03344 330.97194 0.00000 272.11166 0.00000 -999.00000 680.00000 -999.00000 
0.38369 0.91440 -0.03589 -0.03553 332.13959 0.00000 272.11063 0.00000 -999.00000 680.00000 -999.00000 
0.37992 0.91440 -0.03600 -0.03760 333.30677 0.00000 272.10961 0.00000 -999.00000 680.00000 -999.00000 
0.37616 0.91440 -0.03611 -0.03964 334.47737 0.00000 272.10861 0.00000 -999.00000 680.00000 -999.00000 
0.37239 0.91440 -0.03621 -0.04165 335.65245 0.00000 272.10762 0.00000 -999.00000 680.00000 -999.00000 
0.36863 0.91440 -0.03631 -0.04362 336.82966 0.00000 272.10665 0.00000 -999.00000 680.00000 -999.00000 
0.36486 0.91440 -0.03641 -0.04557 338.00548 0.00000 272.10570 0.00000 -999.00000 680.00000 -999.00000 
0.36109 0.91440 -0.03651 -0.04748 339.17767 0.00000 272.10476 0.00000 -999.00000 680.00000 -999.00000 
0.35733 0.91440 -0.03660 -0.04937 340.34782 0.00000 272.10384 0.00000 -999.00000 680.00000 -999.00000 
0.35356 0.91440 -0.03668 -0.05126 341.52525 0.00000 272.10291 0.00000 -999.00000 680.00000 -999.00000 
0.34979 0.91440 -0.03677 -0.05314 342.72470 0.00000 272.10200 0.00000 -999.00000 680.00000 -999.00000 
0.34603 0.91440 -0.03684 -0.05496 343.93878 0.00000 272.10111 0.00000 -999.00000 680.00000 -999.00000 
0.34226 0.91440 -0.03692 -0.05677 345.15255 0.00000 272.10024 0.00000 -999.00000 680.00000 -999.00000 
0.33849 0.91440 -0.03699 -0.05856 346.37208 0.00000 272.09937 0.00000 -999.00000 680.00000 -999.00000 
0.33473 0.91440 -0.03706 -0.06034 347.60746 0.00000 272.09850 0.00000 -999.00000 680.00000 -999.00000 
0.33096 0.91440 -0.03712 -0.06209 348.86060 0.00000 272.09766 0.00000 -999.00000 680.00000 -999.00000 
0.32719 0.91440 -0.03718 -0.06382 350.12577 0.00000 272.09683 0.00000 -999.00000 680.00000 -999.00000 
0.32343 0.91440 -0.03723 -0.06554 351.40765 0.00000 272.09600 0.00000 -999.00000 680.00000 -999.00000 
0.31966 0.91440 -0.03728 -0.06723 352.71390 0.00000 272.09520 0.00000 -999.00000 680.00000 -999.00000 
0.31589 0.91440 -0.03733 -0.06889 354.03802 0.00000 272.09441 0.00000 -999.00000 680.00000 -999.00000 
0.31213 0.91440 -0.03737 -0.07055 355.38185 0.00000 272.09362 0.00000 -999.00000 680.00000 -999.00000 
0.30836 0.91440 -0.03741 -0.07217 356.74849 0.00000 272.09285 0.00000 -999.00000 680.00000 -999.00000 
0.30459 0.91440 -0.03744 -0.07377 358.12561 0.00000 272.09210 0.00000 -999.00000 680.00000 -999.00000 
0.30082 0.91440 -0.03747 -0.07536 359.51136 0.00000 272.09135 0.00000 -999.00000 680.00000 -999.00000 
0.29706 0.91440 -0.03749 -0.07691 360.90707 0.00000 272.09062 0.00000 -999.00000 680.00000 -999.00000 
0.29329 0.91440 -0.03751 -0.07845 362.30974 0.00000 272.08990 0.00000 -999.00000 680.00000 -999.00000 
0.28952 0.91440 -0.03752 -0.07997 363.72147 0.00000 272.08919 0.00000 -999.00000 680.00000 -999.00000 
0.28575 0.91440 -0.03753 -0.08146 365.13812 0.00000 272.08850 0.00000 -999.00000 680.00000 -999.00000 
0.28199 0.91440 -0.03753 -0.08294 366.56337 0.00000 272.08781 0.00000 -999.00000 680.00000 -999.00000 
0.27822 0.91440 -0.03753 -0.08438 367.99034 0.00000 272.08714 0.00000 -999.00000 680.00000 -999.00000 
0.27445 0.91440 -0.03752 -0.08581 369.42223 0.00000 272.08648 0.00000 -999.00000 680.00000 -999.00000 
0.27068 0.91440 -0.03751 -0.08720 370.87553 0.00000 272.08584 0.00000 -999.00000 680.00000 -999.00000 
0.26692 0.91440 -0.03749 -0.08855 372.33671 0.00000 272.08522 0.00000 -999.00000 680.00000 -999.00000 
0.26315 0.91440 -0.03746 -0.08989 373.80714 0.00000 272.08461 0.00000 -999.00000 680.00000 -999.00000 
0.25938 0.91440 -0.03743 -0.09118 375.29297 0.00000 272.08403 0.00000 -999.00000 680.00000 -999.00000 
0.25562 0.91440 -0.03740 -0.09247 376.79155 0.00000 272.08345 0.00000 -999.00000 680.00000 -999.00000 
0.25185 0.91440 -0.03735 -0.09370 378.31005 0.00000 272.08289 0.00000 -999.00000 680.00000 -999.00000 
0.24808 0.91440 -0.03730 -0.09490 379.84221 0.00000 272.08236 0.00000 -999.00000 680.00000 -999.00000 
0.24431 0.91440 -0.03725 -0.09608 381.39509 0.00000 272.08184 0.00000 -999.00000 680.00000 -999.00000 
0.24055 0.91440 -0.03719 -0.09719 382.97548 0.00000 272.08137 0.00000 -999.00000 680.00000 -999.00000 
0.23678 0.91440 -0.03712 -0.09829 384.57981 0.00000 272.08089 0.00000 -999.00000 680.00000 -999.00000 
0.23301 0.91440 -0.03704 -0.09933 386.21889 0.00000 272.08046 0.00000 -999.00000 680.00000 -999.00000 
0.22925 0.91440 -0.03696 -0.10031 387.88541 0.00000 272.08006 0.00000 -999.00000 680.00000 -999.00000 
0.22548 0.91440 -0.03687 -0.10128 389.58736 0.00000 272.07966 0.00000 -999.00000 680.00000 -999.00000 
0.22172 0.91440 -0.03678 -0.10216 391.34248 0.00000 272.07932 0.00000 -999.00000 680.00000 -999.00000 
0.21795 0.91440 -0.03667 -0.10298 393.14503 0.00000 272.07902 0.00000 -999.00000 680.00000 -999.00000 
0.21418 0.91440 -0.03656 -0.10377 395.00899 0.00000 272.07874 0.00000 -999.00000 680.00000 -999.00000 
0.21042 0.91440 -0.03644 -0.10445 396.93986 0.00000 272.07852 0.00000 -999.00000 680.00000 -999.00000 
0.20665 0.91440 -0.03631 -0.10507 398.91719 0.00000 272.07834 0.00000 -999.00000 680.00000 -999.00000 
0.20289 0.91440 -0.03618 -0.10564 400.93786 0.00000 272.07819 0.00000 -999.00000 680.00000 -999.00000 
0.19912 0.91440 -0.03603 -0.10610 402.99504 0.00000 272.07811 0.00000 -999.00000 680.00000 -999.00000 
0.19536 0.91440 -0.03588 -0.10647 405.06179 0.00000 272.07807 0.00000 -999.00000 680.00000 -999.00000 
0.19160 0.91440 -0.03571 -0.10678 407.13451 0.00000 272.07807 0.00000 -999.00000 680.00000 -999.00000 
0.18783 0.91440 -0.03554 -0.10699 409.22515 0.00000 272.07812 0.00000 -999.00000 680.00000 -999.00000 
0.18407 0.91440 -0.03536 -0.10709 411.32643 0.00000 272.07824 0.00000 -999.00000 680.00000 -999.00000 
0.18031 0.91440 -0.03517 -0.10709 413.43085 0.00000 272.07841 0.00000 -999.00000 680.00000 -999.00000 
0.17654 0.91440 -0.03497 -0.10699 415.54897 0.00000 272.07863 0.00000 -999.00000 680.00000 -999.00000 
0.17278 0.91440 -0.03475 -0.10676 417.69099 0.00000 272.07893 0.00000 -999.00000 680.00000 -999.00000 
0.16902 0.91440 -0.03453 -0.10642 419.86312 0.00000 272.07929 0.00000 -999.00000 680.00000 -999.00000 
0.16526 0.91440 -0.03430 -0.10592 422.07541 0.00000 272.07974 0.00000 -999.00000 680.00000 -999.00000 
0.16150 0.91440 -0.03405 -0.10527 424.33647 0.00000 272.08028 0.00000 -999.00000 680.00000 -999.00000 
0.15774 0.91440 -0.03380 -0.10447 426.66503 0.00000 272.08091 0.00000 -999.00000 680.00000 -999.00000 
0.15399 0.91440 -0.03353 -0.10348 429.08429 0.00000 272.08165 0.00000 -999.00000 680.00000 -999.00000 
0.15023 0.91440 -0.03325 -0.10231 431.61109 0.00000 272.08250 0.00000 -999.00000 680.00000 -999.00000 
0.14647 0.91440 -0.03295 -0.10095 434.25394 0.00000 272.08346 0.00000 -999.00000 680.00000 -999.00000 
0.14272 0.91440 -0.03265 -0.09942 437.00605 0.00000 272.08452 0.00000 -999.00000 680.00000 -999.00000 
0.13896 0.91440 -0.03233 -0.09769 439.85070 0.00000 272.08571 0.00000 -999.00000 680.00000 -999.00000 
0.13521 0.91440 -0.03199 -0.09576 442.77150 0.00000 272.08700 0.00000 -999.00000 680.00000 -999.00000 
0.13146 0.91440 -0.03164 -0.09358 445.73981 0.00000 272.08844 0.00000 -999.00000 680.00000 -999.00000 
0.12771 0.91440 -0.03128 -0.09112 448.69099 0.00000 272.09003 0.00000 -999.00000 680.00000 -999.00000 
0.12396 0.91440 -0.03090 -0.08842 451.54845 0.00000 272.09175 0.00000 -999.00000 680.00000 -999.00000 
0.12034 0.91440 -0.03052 -0.08549 454.24790 0.00000 272.09359 0.00000 -999.00000 680.00000 -999.00000 
0.11690 0.91440 -0.03014 -0.08239 456.75824 0.00000 272.09550 0.00000 -999.00000 680.00000 -999.00000 
0.11362 0.91440 -0.02977 -0.07921 459.13366 0.00000 272.09745 0.00000 -999.00000 680.00000 -999.00000 
0.11049 0.91440 -0.02940 -0.07585 461.45358 0.00000 272.09950 0.00000 -999.00000 680.00000 -999.00000 
0.10752 0.91440 -0.02904 -0.07240 463.75034 0.00000 272.10160 0.00000 -999.00000 680.00000 -999.00000 
0.10469 0.91440 -0.02868 -0.06895 466.07617 0.00000 272.10369 0.00000 -999.00000 680.00000 -999.00000 
0.10200 0.91440 -0.02833 -0.06540 468.41316 0.00000 272.10585 0.00000 -999.00000 680.00000 -999.00000 
0.09943 0.91440 -0.02799 -0.06179 470.67022 0.00000 271.93404 0.50000 -999.00000 680.00000 -999.00000 
0.09699 0.91440 -0.02765 -0.05820 472.83022 0.00000 272.45558 0.79237 -999.00000 680.00000 -999.00000 
0.09467 0.91440 -0.02732 -0.05456 474.89317 0.00000 273.15000 0.46458 -999.00000 680.00000 -999.00000 
0.09246 0.91440 -0.02700 -0.05088 476.81297 0.00000 273.15000 0.29253 -999.00000 680.00000 -999.00000 
0.09035 0.91440 -0.02669 -0.04722 478.51938 0.00000 273.15000 0.21169 -999.00000 680.00000 -999.00000 
0.08835 0.91440 -0.02638 -0.04453 480.17141 0.00000 273.15000 0.16445 -999.00000 680.00000 -999.00000 
0.08644 0.91440 -0.02609 -0.03988 483.02900 0.00000 273.15000 0.13608 -999.00000 680.00000 -999.00000 
0.08454 0.91440 -0.02578 -0.03481 486.09163 0.00000 273.15000 0.11843 -999.00000 680.00000 -999.00000 
0.08263 0.91440 -0.02548 -0.03155 488.08982 0.00000 273.15000 0.10483 -999.00000 680.00000 -999.00000 
0.08073 0.91440 -0.02516 -0.02740 490.10320 0.00000 273.15000 0.09399 -999.00000 680.00000 -999.00000 
0.07883 0.91440 -0.02484 -0.02294 492.30844 0.00000 273.15000 0.08520 -999.00000 680.00000 -999.00000 
0.07693 0.91440 -0.02451 -0.01822 494.57834 0.00000 273.15000 0.07792 -999.00000 680.00000 -999.00000 
0.07503 0.91440 -0.02417 -0.01326 496.89644 0.00000 273.15000 0.07178 -999.00000 680.00000 -999.00000 
0.07313 0.91440 -0.02383 -0.00806 499.28059 0.00000 273.15000 0.06654 -999.00000 680.00000 -999.00000 
0.07123 0.91440 -0.02347 -0.00257 501.74530 0.00000 273.15000 0.06201 -999.00000 680.00000 -999.00000 
0.06934 0.91440 -0.02311 0.00314 504.31457 0.00000 273.15000 0.05805 -999.00000 680.00000 -999.00000 
0.06744 0.91440 -0.02275 0.00908 507.03977 0.00000 273.15000 0.05458 -999.00000 680.00000 -999.00000 
0.06555 0.91440 -0.02237 0.01533 509.94991 0.00000 273.15000 0.05150 -999.00000 680.00000 -999.00000 
0.06366 0.91440 -0.02198 0.02196 513.02162 0.00084 273.15000 0.04878 -999.00000 680.00000 -999.00000 
0.06177 0.91440 -0.02159 0.02894 516.22044 0.00425 273.15000 0.04640 -999.00000 680.00000 -999.00000 
0.05988 0.91440 -0.02119 0.03627 519.54621 0.00955 273.15000 0.04433 -999.00000 680.00000 -999.00000 
0.05800 0.91440 -0.02077 0.04401 522.98697 0.01519 273.15000 0.04253 -999.00000 680.00000 -999.00000 
0.05612 0.91440 -0.02035 0.05216 526.48737 0.02118 273.15000 0.04093 -999.00000 680.00000 -999.00000 
0.05424 0.91440 -0.01992 0.06078 529.97331 0.02750 273.15000 0.03952 -999.00000 680.00000 -999.00000 
0.05236 0.91440 -0.01947 0.06993 533.35741 0.03415 273.15000 0.03826 -999.00000 680.00000 -999.00000 
0.05049 0.91440 -0.01902 0.07961 536.56623 0.04111 273.15000 0.03712 -999.00000 680.00000 -999.00000 
0.04861 0.91440 -0.01855 0.08980 539.58685 0.04840 273.15000 0.03610 -999.00000 680.00000 -999.00000 
0.04674 0.91440 -0.01807 0.10062 542.47332 0.05608 273.15000 0.03517 -999.00000 680.00000 -999.00000 
0.04488 0.91440 -0.01758 0.11215 545.33332 0.06419 273.15000 0.03435 -999.00000 680.00000 -999.00000 
0.04302 0.91440 -0.01707 0.12436 548.33303 0.07274 273.15000 0.03363 -999.00000 680.00000 -999.00000 
0.04116 0.91440 -0.01656 0.13718 551.72357 0.08173 273.15000 0.03302 -999.00000 680.00000 -999.00000 
0.03930 0.91440 -0.01602 0.15082 555.65977 0.09120 273.15000 0.03252 -999.00000 680.00000 -999.00000 
0.03745 0.91440 -0.01547 0.16557 559.94912 0.10126 273.15000 0.03210 -999.00000 680.00000 -999.00000 
0.03561 0.91440 -0.01491 0.18156 564.18836 0.11192 273.15000 0.03174 -999.00000 680.00000 -999.00000 
0.03377 0.91440 -0.01433 0.19888 568.01227 0.12319 273.15000 0.03141 -999.00000 680.00000 -999.00000 
0.03194 0.91440 -0.01373 0.21738 571.27942 0.13510 273.15000 0.03112 -999.00000 680.00000 -999.00000 
0.03011 0.91440 -0.01311 0.23715 574.13371 0.14784 273.15000 0.03089 -999.00000 680.00000 -999.00000 
0.02829 0.91440 -0.01247 0.25815 576.91000 0.16156 273.15000 0.03073 -999.00000 680.00000 -999.00000 
0.02648 0.91440 -0.01180 0.28083 579.88753 0.17627 273.15000 0.03065 -999.00000 680.00000 -999.00000 
0.02468 0.91440 -0.01111 0.30590 582.58274 0.19190 273.15000 0.03062 -999.00000 680.00000 -999.00000 
0.02288 0.91440 -0.01040 0.33344 584.11109 0.20863 273.15000 0.03061 -999.00000 680.00000 -999.00000 
0.02110 0.91440 -0.00966 0.36333 584.72819 0.22672 273.15000 0.03065 -999.00000 680.00000 -999.00000 
0.01933 0.91440 -0.00889 0.39615 585.54469 0.24629 273.15000 0.03081 -999.00000 680.00000 -999.00000 
0.01758 0.91440 -0.00808 0.43275 586.00442 0.26742 273.15000 0.03105 -999.00000 680.00000 -999.00000 
0.01585 0.91440 -0.00724 0.47283 584.20743 0.29046 273.15000 0.03135 -999.00000 680.00000 -999.00000 
0.01413 0.91440 -0.00635 0.51746 580.05722 0.31577 273.15000 0.03173 -999.00000 680.00000 -999.00000 
0.01244 0.91440 -0.00542 0.56696 574.38348 0.34367 273.15000 0.03230 -999.00000 680.00000 -999.00000 
0.01078 0.91440 -0.00444 0.62224 566.84453 0.37492 273.15000 0.03313 -999.00000 680.00000 -999.00000 
0.00916 0.91440 -0.00339 0.68489 558.16969 0.41011 273.15000 0.03441 -999.00000 680.00000 -999.00000 
0.00759 0.91440 -0.00228 0.75566 550.21588 0.44937 273.15000 0.03634 -999.00000 680.00000 -999.00000 
0.00609 0.91440 -0.00109 0.82838 541.68812 0.49196 273.15000 0.03807 -999.00000 680.00000 -999.00000 
0.00480 0.91440 0.00006 0.89750 533.32972 0.53569 273.15000 0.04067 -999.00000 680.00000 -999.00000 
0.00370 0.91440 0.00119 0.95841 523.45089 0.57849 273.15000 0.04729 -999.00000 680.00000 -999.00000 
0.00279 0.91440 0.00228 1.00482 511.58175 0.61942 273.15000 0.06588 -999.00000 680.00000 -999.00000 
0.00203 0.91440 0.00334 1.03068 502.39434 0.65700 273.15000 0.08740 -999.00000 680.00000 -999.00000 
0.00143 0.91440 0.00437 1.02513 536.50159 0.68894 273.15000 0.07887 -999.00000 680.00000 -999.00000 
0.00097 0.91440 0.00538 0.98111 619.21278 0.71293 273.15000 0.05451 -999.00000 680.00000 -999.00000 
0.00063 0.91440 0.00637 0.89521 713.92171 0.72668 273.15000 0.04448 -999.00000 680.00000 -999.00000 
0.00042 0.91440 0.00735 0.76520 815.87392 0.72933 273.15000 0.04390 -999.00000 680.00000 -999.00000 
0.00031 0.91440 0.00834 0.58615 913.12477 0.71900 273.15000 0.04781 -999.00000 680.00000 -999.00000 
0.00032 0.91440 0.00930 0.48343 958.26733 0.71011 273.15000 0.05055 -999.00000 680.00000 -999.00000 
0.00045 0.91440 0.01025 0.11683 1051.09145 0.65608 273.15000 0.06371 -999.00000 680.00000 -999.00000 
0.00068 0.91440 0.01121 -0.14098 1101.46497 0.60668 273.15000 0.07498 -999.00000 680.00000 -999.00000 
0.00103 0.91440 0.01215 -0.39944 1131.20586 0.54614 273.15000 0.08745 -999.00000 680.00000 -999.00000 
0.00150 0.91440 0.01308 -0.64052 1141.26445 0.47738 273.15000 0.10271 -999.00000 680.00000 -999.00000 
0.00209 0.91440 0.01401 -0.84957 1130.15891 0.40445 273.15000 0.12130 -999.00000 680.00000 -999.00000 
0.00283 0.91440 0.01495 -1.01957 1102.54422 0.32957 273.15000 0.14346 -999.00000 680.00000 -999.00000 
0.00371 0.91440 0.01589 -1.15389 1068.60093 0.25382 273.15000 0.17241 -999.00000 680.00000 -999.00000 
0.00475 0.91440 0.01683 -1.25077 1033.26233 0.17868 273.15000 0.21752 -999.00000 680.00000 -999.00000 
0.00599 0.91440 0.01779 -1.31333 1000.43456 0.10616 273.15000 0.29607 -999.00000 680.00000 -999.00000 
0.00742 0.91440 0.01875 -1.35337 969.07683 0.03618 273.15000 0.47395 -999.00000 680.00000 -999.00000 
0.00905 0.91440 0.01971 -1.37292 936.89580 0.00078 271.77598 0.80084 -999.00000 680.00000 -999.00000 
0.01075 0.91440 0.02060 -1.37211 907.24196 0.00000 270.87990 0.50000 -999.00000 680.00000 -999.00000 
0.01249 0.91440 0.02141 -1.36262 882.46075 0.00000 271.36074 0.00000 -999.00000 680.00000 -999.00000 
0.01426 0.91440 0.02215 -1.34890 860.08586 0.00000 271.36870 0.00000 -999.00000 680.00000 -999.00000 
0.01605 0.91440 0.02284 -1.32990 839.78663 0.00000 271.37985 0.00000 -999.00000 680.00000 -999.00000 
0.01786 0.91440 0.02348 -1.31035 821.92929 0.00000 271.39134 0.00000 -999.00000 680.00000 -999.00000 
0.01969 0.91440 0.02407 -1.29096 805.96003 0.00000 271.40275 0.00000 -999.00000 680.00000 -999.00000 
0.02153 0.91440 0.02462 -1.27076 791.67625 0.00000 271.41465 0.00000 -999.00000 680.00000 -999.00000 
0.02338 0.91440 0.02514 -1.25150 778.43045 0.00000 271.42599 0.00000 -999.00000 680.00000 -999.00000 
0.02523 0.91440 0.02563 -1.23284 765.64235 0.00000 271.43694 0.00000 -999.00000 680.00000 -999.00000 
0.02710 0.91440 0.02609 -1.21417 753.51327 0.00000 271.44790 0.00000 -999.00000 680.00000 -999.00000 
0.02897 0.91440 0.02652 -1.19626 742.17783 0.00000 271.45839 0.00000 -999.00000 680.00000 -999.00000 
0.03085 0.91440 0.02692 -1.17927 731.39357 0.00000 271.46833 0.00000 -999.00000 680.00000 -999.00000 
0.03273 0.91440 0.02730 -1.16285 720.96997 0.00000 271.47793 0.00000 -999.00000 680.00000 -999.00000 
0.03461 0.91440 0.02767 -1.14687 710.92237 0.00000 271.48725 0.00000 -999.00000 680.00000 -999.00000 
0.03650 0.91440 0.02801 -1.13146 701.29254 0.00000 271.49622 0.00000 -999.00000 680.00000 -999.00000 
0.03840 0.91440 0.02833 -1.11680 691.97660 0.00000 271.50474 0.00000 -999.00000 680.00000 -999.00000 
0.04029 0.91440 0.02863 -1.10262 682.85549 0.00000 271.51296 0.00000 -999.00000 680.00000 -999.00000 
0.04219 0.91440 0.02892 -1.08881 673.95382 0.00000 271.52096 0.00000 -999.00000 680.00000 -999.00000 
0.04409 0.91440 0.02919 -1.07529 665.35254 0.00000 271.52878 0.00000 -999.00000 680.00000 -999.00000 
0.04599 0.91440 0.02944 -1.06229 657.06802 0.00000 271.53628 0.00000 -999.00000 680.00000 -999.00000 
0.04790 0.91440 0.02969 -1.04972 649.06648 0.00000 271.54353 0.00000 -999.00000 680.00000 -999.00000 
0.04980 0.91440 0.02991 -1.03748 641.37729 0.00000 271.55058 0.00000 -999.00000 680.00000 -999.00000 
0.05171 0.91440 0.03013 -1.02566 634.01884 0.00000 271.55737 0.00000 -999.00000 680.00000 -999.00000 
0.05362 0.91440 0.03033 -1.01417 626.98246 0.00000 271.56398 0.00000 -999.00000 680.00000 -999.00000 
0.05553 0.91440 0.03052 -1.00305 620.25484 0.00000 271.57036 0.00000 -999.00000 680.00000 -999.00000 
0.05744 0.91440 0.03070 -0.99228 613.78744 0.00000 271.57653 0.00000 -999.00000 680.00000 -999.00000 
0.05936 0.91440 0.03087 -0.98174 607.56217 0.00000 271.58257 0.00000 -999.00000 680.00000 -999.00000 
0.06127 0.91440 0.03103 -0.97145 601.58161 0.00000 271.58846 0.00000 -999.00000 680.00000 -999.00000 
0.06318 0.91440 0.03118 -0.96140 595.84897 0.00000 271.59421 0.00000 -999.00000 680.00000 -999.00000 
0.06510 0.91440 0.03132 -0.95156 590.36673 0.00000 271.59984 0.00000 -999.00000 680.00000 -999.00000 
0.06701 0.91440 0.03144 -0.94201 585.09731 0.00000 271.60529 0.00000 -999.00000 680.00000 -999.00000 
0.06893 0.91440 0.03156 -0.93267 579.99822 0.00000 271.61062 0.00000 -999.00000 680.00000 -999.00000 
0.07085 0.91440 0.03167 -0.92352 575.06333 0.00000 271.61584 0.00000 -999.00000 680.00000 -999.00000 
0.07276 0.91440 0.03178 -0.91456 570.29231 0.00000 271.62095 0.00000 -999.00000 680.00000 -999.00000 
0.07468 0.91440 0.03187 -0.90575 565.68842 0.00000 271.62596 0.00000 -999.00000 680.00000 -999.00000 
0.07660 0.91440 0.03196 -0.89718 561.22846 0.00000 271.63084 0.00000 -999.00000 680.00000 -999.00000 
0.07852 0.91440 0.03204 -0.88877 556.88093 0.00000 271.63563 0.00000 -999.00000 680.00000 -999.00000 
0.08044 0.91440 0.03211 -0.88048 552.63643 0.00000 271.64034 0.00000 -999.00000 680.00000 -999.00000 
0.08235 0.91440 0.03217 -0.87239 548.45738 0.00000 271.64493 0.00000 -999.00000 680.00000 -999.00000 
0.08427 0.91440 0.03223 -0.86436 544.33600 0.00000 271.64948 0.00000 -999.00000 680.00000 -999.00000 
0.08619 0.91440 0.03228 -0.85668 540.43347 0.00000 271.65383 0.00000 -999.00000 680.00000 -999.00000 
0.08811 0.91440 0.03232 -0.84756 536.99950 0.00000 271.65904 0.00000 -999.00000 680.00000 -999.00000 
0.09003 0.91440 0.03235 -0.84121 532.79865 0.00000 271.66259 0.00000 -999.00000 680.00000 -999.00000 
0.09189 0.91440 0.03238 -0.83531 528.56740 0.00000 271.66586 0.00000 -999.00000 680.00000 -999.00000 
0.09383 0.91440 0.03241 -0.82665 525.40719 0.00000 271.67081 0.00000 -999.00000 680.00000 -999.00000 
0.09588 0.91440 0.03242 -0.81906 522.20572 0.00000 271.67511 0.00000 -999.00000 680.00000 -999.00000 
0.09802 0.91440 0.03244 -0.81106 518.90153 0.00000 271.67965 0.00000 -999.00000 680.00000 -999.00000 
0.10028 0.91440 0.03244 -0.80281 515.53443 0.00000 271.68433 0.00000 -999.00000 680.00000 -999.00000 
0.10264 0.91440 0.03244 -0.79428 512.08653 0.00000 271.68917 0.00000 -999.00000 680.00000 -999.00000 
0.10513 0.91440 0.03243 -0.78553 508.58168 0.00000 271.69412 0.00000 -999.00000 680.00000 -999.00000 
0.10774 0.91440 0.03240 -0.77646 505.02918 0.00000 271.69926 0.00000 -999.00000 680.00000 -999.00000 
0.11048 0.91440 0.03237 -0.76715 501.38956 0.00000 271.70452 0.00000 -999.00000 680.00000 -999.00000 
0.11335 0.91440 0.03232 -0.75748 497.66816 0.00000 271.70999 0.00000 -999.00000 680.00000 -999.00000 
0.11637 0.91440 0.03226 -0.74749 493.87214 0.00000 271.71563 0.00000 -999.00000 680.00000 -999.00000 
0.11954 0.91440 0.03218 -0.73722 489.95430 0.00000 271.72143 0.00000 -999.00000 680.00000 -999.00000 
0.12287 0.91440 0.03209 -0.72656 485.87749 0.00000 271.72743 0.00000 -999.00000 680.00000 -999.00000 
0.12636 0.91440 0.03198 -0.71567 481.59438 0.00000 271.73355 0.00000 -999.00000 680.00000 -999.00000 
0.13003 0.91440 0.03184 -0.70450 477.11361 0.00000 271.73982 0.00000 -999.00000 680.00000 -999.00000 
0.13382 0.91440 0.03169 -0.69319 472.55752 0.00000 271.74615 0.00000 -999.00000 680.00000 -999.00000 
0.13760 0.91440 0.03152 -0.68200 468.07505 0.00000 271.75241 0.00000 -999.00000 680.00000 -999.00000 
0.14138 0.91440 0.03134 -0.67109 463.71466 0.00000 271.75850 0.00000 -999.00000 680.00000 -999.00000 
0.14517 0.91440 0.03114 -0.66035 459.48329 0.00000 271.76450 0.00000 -999.00000 680.00000 -999.00000 
0.14895 0.91440 0.03092 -0.64980 455.38555 0.00000 271.77038 0.00000 -999.00000 680.00000 -999.00000 
0.15273 0.91440 0.03070 -0.63951 451.38190 0.00000 271.77611 0.00000 -999.00000 680.00000 -999.00000 
0.15651 0.91440 0.03046 -0.62934 447.46216 0.00000 271.78176 0.00000 -999.00000 680.00000 -999.00000 
0.16029 0.91440 0.03021 -0.61925 443.67284 0.00000 271.78737 0.00000 -999.00000 680.00000 -999.00000 
0.16406 0.91440 0.02994 -0.60932 440.02882 0.00000 271.79289 0.00000 -999.00000 680.00000 -999.00000 
0.16784 0.91440 0.02967 -0.59956 436.49060 0.00000 271.79831 0.00000 -999.00000 680.00000 -999.00000 
0.17162 0.91440 0.02938 -0.58992 433.02075 0.00000 271.80366 0.00000 -999.00000 680.00000 -999.00000 
0.17539 0.91440 0.02908 -0.58038 429.60159 0.00000 271.80895 0.00000 -999.00000 680.00000 -999.00000 
0.17917 0.91440 0.02877 -0.57094 426.22918 0.00000 271.81417 0.00000 -999.00000 680.00000 -999.00000 