#+++++++++++++++++++++++++++++++++++++++++++++++++++++++++++++++++++++++++++++++++++++++++++++++++++++++++++++++++++++++++++++++++
#
#   IPW-3 Cut/Slice DATA SUBMITTAL FORM for Test Case NACA0012_AE3932, May 18th 2026
#
#       NOMENCLATURE:
#                  X [m]:  X-coordinate of the surface (clean for reference)
#                  Y [m]:  Y-coordinate of the surface (clean for reference)
#                  Z [m]:  Z-coordinate of the surface (clean for reference)
#                 Cp [-]:  Pressure coefficient
#            HTC [W/m2K]:  Convective Heat Transfer Coefficient (on the rough surface)
#               Beta [-]:  Collection efficiency
#                 Ts [K]:  Surface temperature
#                 FF [-]:  Freezing fraction
#                  k [m]:  Surface roughness height if variable (OPTIONAL)
#         RhoIce [kg/m3]:  Ice density (OPTIONAL)
#      HTC_CLEAN [W/m2K]:  Convective Heat Transfer Coefficient on the surface without roughness (OPTIONAL)
#
#                XXmm:  Roughness height used for the case, in mm.
#                       In the zone name, use the format KS_XXmm.
#                       For example, if k_s = 1.5 mm, use KS_1p5mm. 
#                       For Variable roughness, use KS_VAR
#
#    FLOW CONDITIONS:
#                                   AOA: 4.0 deg
#                           Mach Number: 0.3151 [-]
#       Mean aerodynamic chord (M.A.C.): 0.5334 [m]
#                       Reynolds Number: 3.9795 million (based on MAC)
#                       Freestream Temp: 267.55 [K]
#                        Reference area: 0.97548 [m2]
#               Moment Reference Center: 0.13335, 0, 0 [m] (X, Y, Z)
#
#    ICING CONDITIONS:
#                           Icing Time: 420 [s]
#                                  LWC: 0.55 [g/m3]
#                                  MVD: 20 [μm]
#
#              NOTES: 1. Please use at least 5 decimal places in the numerical values
#                     2. If data are NOT provided, please fill data fields with a numerical value of "-999" 
#
#++++++++++++++++++++++++++++++++++++++++++++++++++++++++++++++++++++++++++++++++++++++++++++++++++++++++++++++++++++

                                                    <- Optional ->                 
VARIABLES = "X" "Y" "Z" "Cp" "HTC" "Beta" "Ts" "FF" "k" "RhoIce" "HTC_CLEAN"

ZONE T="SLICE_Y_0p9144_BINS01_KS_0p5mm_CUTDATA"
0.53243 0.91440 -0.02791 0.05255 128.07195 0.00000 272.09426 0.00000 -999.00000 680.00000 -999.00000 
0.53241 0.91440 -0.02813 0.05844 113.62792 0.00000 272.08321 0.00000 -999.00000 680.00000 -999.00000 
0.53239 0.91440 -0.02835 -0.02535 123.24081 0.00000 272.04396 0.00000 -999.00000 680.00000 -999.00000 
0.53238 0.91440 -0.02858 -0.11620 143.44395 0.00000 272.01194 0.00000 -999.00000 680.00000 -999.00000 
0.53166 0.91440 -0.02863 0.14995 249.33675 0.00000 272.20034 0.00000 -999.00000 680.00000 -999.00000 
0.53051 0.91440 -0.02871 0.09276 245.02235 0.00000 272.16756 0.00000 -999.00000 680.00000 -999.00000 
0.52867 0.91440 -0.02883 0.09741 235.60552 0.00000 272.16795 0.00000 -999.00000 680.00000 -999.00000 
0.52572 0.91440 -0.02903 0.08870 235.72294 0.00000 272.16313 0.00000 -999.00000 680.00000 -999.00000 
0.52100 0.91440 -0.02935 0.08013 240.30559 0.00000 272.15947 0.00000 -999.00000 680.00000 -999.00000 
0.51345 0.91440 -0.02984 0.06896 246.57892 0.00000 272.15471 0.00000 -999.00000 680.00000 -999.00000 
0.50524 0.91440 -0.03035 0.05896 252.92125 0.00000 272.15054 0.00000 -999.00000 680.00000 -999.00000 
0.49702 0.91440 -0.03085 0.04886 258.74441 0.00000 272.14614 0.00000 -999.00000 680.00000 -999.00000 
0.48880 0.91440 -0.03133 0.03930 263.99887 0.00000 272.14186 0.00000 -999.00000 680.00000 -999.00000 
0.48058 0.91440 -0.03179 0.03043 268.79676 0.00000 272.13784 0.00000 -999.00000 680.00000 -999.00000 
0.47236 0.91440 -0.03223 0.02224 273.23041 0.00000 272.13409 0.00000 -999.00000 680.00000 -999.00000 
0.46413 0.91440 -0.03265 0.01464 277.35476 0.00000 272.13058 0.00000 -999.00000 680.00000 -999.00000 
0.45591 0.91440 -0.03305 0.00754 281.21480 0.00000 272.12729 0.00000 -999.00000 680.00000 -999.00000 
0.44769 0.91440 -0.03344 0.00089 284.84794 0.00000 272.12419 0.00000 -999.00000 680.00000 -999.00000 
0.43946 0.91440 -0.03381 -0.00536 288.28572 0.00000 272.12127 0.00000 -999.00000 680.00000 -999.00000 
0.43124 0.91440 -0.03417 -0.01127 291.56066 0.00000 272.11849 0.00000 -999.00000 680.00000 -999.00000 
0.42301 0.91440 -0.03450 -0.01689 294.70234 0.00000 272.11584 0.00000 -999.00000 680.00000 -999.00000 
0.41478 0.91440 -0.03482 -0.02223 297.72926 0.00000 272.11332 0.00000 -999.00000 680.00000 -999.00000 
0.40656 0.91440 -0.03513 -0.02733 300.66392 0.00000 272.11090 0.00000 -999.00000 680.00000 -999.00000 
0.39833 0.91440 -0.03542 -0.03224 303.52943 0.00000 272.10858 0.00000 -999.00000 680.00000 -999.00000 
0.39010 0.91440 -0.03569 -0.03697 306.34123 0.00000 272.10633 0.00000 -999.00000 680.00000 -999.00000 
0.38187 0.91440 -0.03594 -0.04153 309.11039 0.00000 272.10417 0.00000 -999.00000 680.00000 -999.00000 
0.37364 0.91440 -0.03618 -0.04594 311.85022 0.00000 272.10208 0.00000 -999.00000 680.00000 -999.00000 
0.36541 0.91440 -0.03640 -0.05024 314.57819 0.00000 272.10005 0.00000 -999.00000 680.00000 -999.00000 
0.35718 0.91440 -0.03660 -0.05442 317.30109 0.00000 272.09807 0.00000 -999.00000 680.00000 -999.00000 
0.34895 0.91440 -0.03678 -0.05848 320.02412 0.00000 272.09615 0.00000 -999.00000 680.00000 -999.00000 
0.34072 0.91440 -0.03695 -0.06245 322.75244 0.00000 272.09428 0.00000 -999.00000 680.00000 -999.00000 
0.33249 0.91440 -0.03709 -0.06632 325.49808 0.00000 272.09246 0.00000 -999.00000 680.00000 -999.00000 
0.32425 0.91440 -0.03722 -0.07009 328.26697 0.00000 272.09069 0.00000 -999.00000 680.00000 -999.00000 
0.31602 0.91440 -0.03733 -0.07379 331.06198 0.00000 272.08896 0.00000 -999.00000 680.00000 -999.00000 
0.30779 0.91440 -0.03741 -0.07740 333.89686 0.00000 272.08728 0.00000 -999.00000 680.00000 -999.00000 
0.29956 0.91440 -0.03747 -0.08092 336.79304 0.00000 272.08565 0.00000 -999.00000 680.00000 -999.00000 
0.29132 0.91440 -0.03751 -0.08435 339.75478 0.00000 272.08407 0.00000 -999.00000 680.00000 -999.00000 
0.28309 0.91440 -0.03753 -0.08767 342.76558 0.00000 272.08255 0.00000 -999.00000 680.00000 -999.00000 
0.27486 0.91440 -0.03752 -0.09085 345.82030 0.00000 272.08111 0.00000 -999.00000 680.00000 -999.00000 
0.26662 0.91440 -0.03749 -0.09388 348.93048 0.00000 272.07975 0.00000 -999.00000 680.00000 -999.00000 
0.25839 0.91440 -0.03742 -0.09673 352.10749 0.00000 272.07850 0.00000 -999.00000 680.00000 -999.00000 
0.25016 0.91440 -0.03733 -0.09939 355.36102 0.00000 272.07735 0.00000 -999.00000 680.00000 -999.00000 
0.24193 0.91440 -0.03721 -0.10184 358.69837 0.00000 272.07633 0.00000 -999.00000 680.00000 -999.00000 
0.23369 0.91440 -0.03706 -0.10404 362.13376 0.00000 272.07544 0.00000 -999.00000 680.00000 -999.00000 
0.22546 0.91440 -0.03687 -0.10596 365.68793 0.00000 272.07473 0.00000 -999.00000 680.00000 -999.00000 
0.21723 0.91440 -0.03665 -0.10757 369.35751 0.00000 272.07419 0.00000 -999.00000 680.00000 -999.00000 
0.20900 0.91440 -0.03639 -0.10887 373.12776 0.00000 272.07383 0.00000 -999.00000 680.00000 -999.00000 
0.20078 0.91440 -0.03609 -0.10980 376.99206 0.00000 272.07368 0.00000 -999.00000 680.00000 -999.00000 
0.19255 0.91440 -0.03576 -0.11027 380.93949 0.00000 272.07379 0.00000 -999.00000 680.00000 -999.00000 
0.18433 0.91440 -0.03537 -0.11037 384.92417 0.00000 272.07410 0.00000 -999.00000 680.00000 -999.00000 
0.17610 0.91440 -0.03494 -0.10995 388.85587 0.00000 272.07470 0.00000 -999.00000 680.00000 -999.00000 
0.16820 0.91440 -0.03448 -0.10886 392.63440 0.00000 272.07565 0.00000 -999.00000 680.00000 -999.00000 
0.16067 0.91440 -0.03400 -0.10734 396.21592 0.00000 272.07683 0.00000 -999.00000 680.00000 -999.00000 
0.15350 0.91440 -0.03349 -0.10538 399.58330 0.00000 272.07822 0.00000 -999.00000 680.00000 -999.00000 
0.14668 0.91440 -0.03297 -0.10300 402.71661 0.00000 272.07984 0.00000 -999.00000 680.00000 -999.00000 
0.14019 0.91440 -0.03243 -0.10014 405.63936 0.00000 272.08170 0.00000 -999.00000 680.00000 -999.00000 
0.13400 0.91440 -0.03188 -0.09682 408.36251 0.00000 272.08380 0.00000 -999.00000 680.00000 -999.00000 
0.12812 0.91440 -0.03132 -0.09312 410.90155 0.00000 272.08609 0.00000 -999.00000 680.00000 -999.00000 
0.12252 0.91440 -0.03075 -0.08896 413.32804 0.00000 272.08864 0.00000 -999.00000 680.00000 -999.00000 
0.11719 0.91440 -0.03017 -0.08439 415.69089 0.00000 272.09141 0.00000 -999.00000 680.00000 -999.00000 
0.11212 0.91440 -0.02959 -0.07948 418.01181 0.00000 272.09436 0.00000 -999.00000 680.00000 -999.00000 
0.10729 0.91440 -0.02901 -0.07416 420.35789 0.00000 271.82972 0.50000 -999.00000 680.00000 -999.00000 
0.10270 0.91440 -0.02842 -0.06848 422.73947 0.00000 272.35677 0.80549 -999.00000 680.00000 -999.00000 
0.09832 0.91440 -0.02783 -0.06253 425.11234 0.00000 273.15000 0.48235 -999.00000 680.00000 -999.00000 
0.09416 0.91440 -0.02725 -0.05604 427.32361 0.00000 273.15000 0.29939 -999.00000 680.00000 -999.00000 
0.09021 0.91440 -0.02667 -0.05088 429.27220 0.00000 273.15000 0.21535 -999.00000 680.00000 -999.00000 
0.08644 0.91440 -0.02609 -0.04303 433.17776 0.00000 273.15000 0.17108 -999.00000 680.00000 -999.00000 
0.08262 0.91440 -0.02547 -0.03397 438.23073 0.00000 273.15000 0.14527 -999.00000 680.00000 -999.00000 
0.07881 0.91440 -0.02483 -0.02665 442.38041 0.00000 273.15000 0.12550 -999.00000 680.00000 -999.00000 
0.07500 0.91440 -0.02417 -0.01730 446.72271 0.00000 273.15000 0.11039 -999.00000 680.00000 -999.00000 
0.07120 0.91440 -0.02347 -0.00692 451.37624 0.00000 273.15000 0.09854 -999.00000 680.00000 -999.00000 
0.06740 0.91440 -0.02274 0.00461 456.29965 0.00000 273.15000 0.08897 -999.00000 680.00000 -999.00000 
0.06361 0.91440 -0.02197 0.01743 461.48291 0.00152 273.15000 0.08112 -999.00000 680.00000 -999.00000 
0.05982 0.91440 -0.02117 0.03161 466.92129 0.00853 273.15000 0.07479 -999.00000 680.00000 -999.00000 
0.05605 0.91440 -0.02033 0.04738 472.64571 0.02018 273.15000 0.06981 -999.00000 680.00000 -999.00000 
0.05228 0.91440 -0.01945 0.06506 478.67315 0.03319 273.15000 0.06588 -999.00000 680.00000 -999.00000 
0.04853 0.91440 -0.01853 0.08481 485.02825 0.04756 273.15000 0.06278 -999.00000 680.00000 -999.00000 
0.04478 0.91440 -0.01755 0.10711 491.73248 0.06349 273.15000 0.06036 -999.00000 680.00000 -999.00000 
0.04106 0.91440 -0.01653 0.13237 498.74366 0.08121 273.15000 0.05851 -999.00000 680.00000 -999.00000 
0.03734 0.91440 -0.01544 0.16112 505.94095 0.10095 273.15000 0.05714 -999.00000 680.00000 -999.00000 
0.03365 0.91440 -0.01429 0.19418 513.08903 0.12308 273.15000 0.05620 -999.00000 680.00000 -999.00000 
0.02998 0.91440 -0.01306 0.23245 519.78166 0.14807 273.15000 0.05563 -999.00000 680.00000 -999.00000 
0.02634 0.91440 -0.01175 0.27716 525.37128 0.17652 273.15000 0.05542 -999.00000 680.00000 -999.00000 
0.02274 0.91440 -0.01034 0.33008 528.94143 0.20930 273.15000 0.05553 -999.00000 680.00000 -999.00000 
0.01919 0.91440 -0.00882 0.39324 529.05713 0.24749 273.15000 0.05601 -999.00000 680.00000 -999.00000 
0.01569 0.91440 -0.00716 0.47027 523.21248 0.29277 273.15000 0.05688 -999.00000 680.00000 -999.00000 
0.01229 0.91440 -0.00533 0.56378 509.23915 0.34760 273.15000 0.05864 -999.00000 680.00000 -999.00000 
0.00901 0.91440 -0.00328 0.69008 487.88612 0.41547 273.15000 0.06194 -999.00000 680.00000 -999.00000 
0.00592 0.91440 -0.00095 0.83708 464.27577 0.49520 273.15000 0.06678 -999.00000 680.00000 -999.00000 
0.00360 0.91440 0.00130 0.96001 437.30420 0.57846 273.15000 0.08425 -999.00000 680.00000 -999.00000 
0.00199 0.91440 0.00341 1.02086 440.76727 0.65410 273.15000 0.09360 -999.00000 680.00000 -999.00000 
0.00095 0.91440 0.00542 0.96470 552.74668 0.70925 273.15000 0.07557 -999.00000 680.00000 -999.00000 
0.00041 0.91440 0.00737 0.74567 731.66336 0.72461 273.15000 0.06761 -999.00000 680.00000 -999.00000 
0.00032 0.91440 0.00930 0.59226 817.61626 0.71921 273.15000 0.07234 -999.00000 680.00000 -999.00000 
0.00068 0.91440 0.01119 -0.10416 987.53090 0.60251 273.15000 0.11397 -999.00000 680.00000 -999.00000 
0.00147 0.91440 0.01304 -0.56914 1024.64202 0.48044 273.15000 0.15316 -999.00000 680.00000 -999.00000 
0.00277 0.91440 0.01488 -0.94187 1002.14702 0.33908 273.15000 0.20582 -999.00000 680.00000 -999.00000 
0.00464 0.91440 0.01674 -1.18623 951.05024 0.19562 273.15000 0.29378 -999.00000 680.00000 -999.00000 
0.00723 0.91440 0.01863 -1.31747 892.70940 0.06246 273.15000 0.50560 -999.00000 680.00000 -999.00000 
0.01059 0.91440 0.02051 -1.35852 834.98892 0.00000 271.47581 0.82992 -999.00000 680.00000 -999.00000 
0.01410 0.91440 0.02208 -1.34016 784.29595 0.00000 270.59254 0.50000 -999.00000 680.00000 -999.00000 
0.01771 0.91440 0.02342 -1.30245 745.17643 0.00000 271.39464 0.00000 -999.00000 680.00000 -999.00000 
0.02138 0.91440 0.02458 -1.26366 714.70077 0.00000 271.41732 0.00000 -999.00000 680.00000 -999.00000 
0.02509 0.91440 0.02559 -1.22563 689.69261 0.00000 271.43957 0.00000 -999.00000 680.00000 -999.00000 
0.02883 0.91440 0.02649 -1.18978 668.35285 0.00000 271.46051 0.00000 -999.00000 680.00000 -999.00000 
0.03260 0.91440 0.02728 -1.15610 649.50855 0.00000 271.48014 0.00000 -999.00000 680.00000 -999.00000 
0.03638 0.91440 0.02798 -1.12472 632.36373 0.00000 271.49838 0.00000 -999.00000 680.00000 -999.00000 
0.04018 0.91440 0.02861 -1.09553 616.40710 0.00000 271.51529 0.00000 -999.00000 680.00000 -999.00000 
0.04399 0.91440 0.02917 -1.06826 601.43333 0.00000 271.53103 0.00000 -999.00000 680.00000 -999.00000 
0.04780 0.91440 0.02967 -1.04277 587.35893 0.00000 271.54570 0.00000 -999.00000 680.00000 -999.00000 
0.05163 0.91440 0.03012 -1.01886 574.15124 0.00000 271.55941 0.00000 -999.00000 680.00000 -999.00000 
0.05545 0.91440 0.03052 -0.99622 561.80760 0.00000 271.57236 0.00000 -999.00000 680.00000 -999.00000 
0.05929 0.91440 0.03087 -0.97488 550.30036 0.00000 271.58454 0.00000 -999.00000 680.00000 -999.00000 
0.06312 0.91440 0.03117 -0.95451 539.59084 0.00000 271.59614 0.00000 -999.00000 680.00000 -999.00000 
0.06696 0.91440 0.03144 -0.93510 529.64638 0.00000 271.60718 0.00000 -999.00000 680.00000 -999.00000 
0.07080 0.91440 0.03167 -0.91657 520.38302 0.00000 271.61769 0.00000 -999.00000 680.00000 -999.00000 
0.07465 0.91440 0.03187 -0.89873 511.71997 0.00000 271.62780 0.00000 -999.00000 680.00000 -999.00000 
0.07849 0.91440 0.03203 -0.88155 503.55268 0.00000 271.63752 0.00000 -999.00000 680.00000 -999.00000 
0.08234 0.91440 0.03217 -0.86493 495.96841 0.00000 271.64692 0.00000 -999.00000 680.00000 -999.00000 
0.08618 0.91440 0.03228 -0.84646 489.24102 0.00000 271.65742 0.00000 -999.00000 680.00000 -999.00000 
0.09003 0.91440 0.03235 -0.83311 481.53451 0.00000 271.66486 0.00000 -999.00000 680.00000 -999.00000 
0.09374 0.91440 0.03241 -0.82007 474.82123 0.00000 271.67214 0.00000 -999.00000 680.00000 -999.00000 
0.09763 0.91440 0.03244 -0.80297 470.81543 0.00000 271.68193 0.00000 -999.00000 680.00000 -999.00000 
0.10172 0.91440 0.03244 -0.78810 466.95480 0.00000 271.69042 0.00000 -999.00000 680.00000 -999.00000 
0.10601 0.91440 0.03242 -0.77261 463.01678 0.00000 271.69925 0.00000 -999.00000 680.00000 -999.00000 
0.11052 0.91440 0.03237 -0.75704 459.06465 0.00000 271.70812 0.00000 -999.00000 680.00000 -999.00000 
0.11525 0.91440 0.03228 -0.74117 455.06266 0.00000 271.71715 0.00000 -999.00000 680.00000 -999.00000 
0.12022 0.91440 0.03217 -0.72494 451.03176 0.00000 271.72637 0.00000 -999.00000 680.00000 -999.00000 
0.12544 0.91440 0.03201 -0.70853 446.90653 0.00000 271.73567 0.00000 -999.00000 680.00000 -999.00000 
0.13091 0.91440 0.03181 -0.69183 442.64686 0.00000 271.74513 0.00000 -999.00000 680.00000 -999.00000 
0.13666 0.91440 0.03156 -0.67480 438.23587 0.00000 271.75475 0.00000 -999.00000 680.00000 -999.00000 
0.14269 0.91440 0.03127 -0.65752 433.61078 0.00000 271.76449 0.00000 -999.00000 680.00000 -999.00000 
0.14903 0.91440 0.03092 -0.63997 428.75759 0.00000 271.77435 0.00000 -999.00000 680.00000 -999.00000 
0.15567 0.91440 0.03051 -0.62210 423.68567 0.00000 271.78436 0.00000 -999.00000 680.00000 -999.00000 
0.16265 0.91440 0.03004 -0.60392 418.38880 0.00000 271.79451 0.00000 -999.00000 680.00000 -999.00000 
0.16997 0.91440 0.02950 -0.58551 412.84491 0.00000 271.80476 0.00000 -999.00000 680.00000 -999.00000 
0.17766 0.91440 0.02889 -0.56689 407.03822 0.00000 271.81509 0.00000 -999.00000 680.00000 -999.00000 
0.18572 0.91440 0.02820 -0.54794 401.00480 0.00000 271.82556 0.00000 -999.00000 680.00000 -999.00000 
0.19400 0.91440 0.02745 -0.52882 394.87016 0.00000 271.83609 0.00000 -999.00000 680.00000 -999.00000 
0.20227 0.91440 0.02665 -0.51016 388.76092 0.00000 271.84634 0.00000 -999.00000 680.00000 -999.00000 
0.21054 0.91440 0.02580 -0.49206 382.73606 0.00000 271.85624 0.00000 -999.00000 680.00000 -999.00000 
0.21880 0.91440 0.02492 -0.47428 376.83864 0.00000 271.86594 0.00000 -999.00000 680.00000 -999.00000 
0.22706 0.91440 0.02400 -0.45687 371.09420 0.00000 271.87541 0.00000 -999.00000 680.00000 -999.00000 
0.23531 0.91440 0.02304 -0.43980 365.50528 0.00000 271.88467 0.00000 -999.00000 680.00000 -999.00000 
0.24356 0.91440 0.02204 -0.42306 360.06338 0.00000 271.89373 0.00000 -999.00000 680.00000 -999.00000 
0.25180 0.91440 0.02102 -0.40661 354.77091 0.00000 271.90262 0.00000 -999.00000 680.00000 -999.00000 
0.26005 0.91440 0.01996 -0.39040 349.62052 0.00000 271.91136 0.00000 -999.00000 680.00000 -999.00000 
0.26828 0.91440 0.01888 -0.37446 344.59194 0.00000 271.91993 0.00000 -999.00000 680.00000 -999.00000 
0.27652 0.91440 0.01776 -0.35877 339.67321 0.00000 271.92834 0.00000 -999.00000 680.00000 -999.00000 
0.28475 0.91440 0.01662 -0.34331 334.85308 0.00000 271.93661 0.00000 -999.00000 680.00000 -999.00000 
0.29297 0.91440 0.01545 -0.32809 330.11357 0.00000 271.94473 0.00000 -999.00000 680.00000 -999.00000 
0.30120 0.91440 0.01426 -0.31310 325.45050 0.00000 271.95270 0.00000 -999.00000 680.00000 -999.00000 
0.30942 0.91440 0.01305 -0.29833 320.86533 0.00000 271.96052 0.00000 -999.00000 680.00000 -999.00000 
0.31763 0.91440 0.01181 -0.28375 316.33987 0.00000 271.96823 0.00000 -999.00000 680.00000 -999.00000 
0.32585 0.91440 0.01056 -0.26932 311.84108 0.00000 271.97582 0.00000 -999.00000 680.00000 -999.00000 
0.33406 0.91440 0.00928 -0.25505 307.33820 0.00000 271.98330 0.00000 -999.00000 680.00000 -999.00000 
0.34227 0.91440 0.00798 -0.24090 302.80610 0.00000 271.99068 0.00000 -999.00000 680.00000 -999.00000 
0.35047 0.91440 0.00666 -0.22686 298.22746 0.00000 271.99797 0.00000 -999.00000 680.00000 -999.00000 
0.35867 0.91440 0.00533 -0.21289 293.58328 0.00000 272.00517 0.00000 -999.00000 680.00000 -999.00000 
0.36687 0.91440 0.00397 -0.19897 288.85947 0.00000 272.01231 0.00000 -999.00000 680.00000 -999.00000 
0.37506 0.91440 0.00260 -0.18511 284.04302 0.00000 272.01936 0.00000 -999.00000 680.00000 -999.00000 
0.38326 0.91440 0.00121 -0.17125 279.10629 0.00000 272.02635 0.00000 -999.00000 680.00000 -999.00000 
0.39144 0.91440 -0.00020 -0.15737 274.02975 0.00000 272.03330 0.00000 -999.00000 680.00000 -999.00000 
0.39963 0.91440 -0.00162 -0.14346 268.80086 0.00000 272.04019 0.00000 -999.00000 680.00000 -999.00000 
0.40781 0.91440 -0.00306 -0.12948 263.39302 0.00000 272.04703 0.00000 -999.00000 680.00000 -999.00000 
0.41599 0.91440 -0.00452 -0.11541 257.77898 0.00000 272.05384 0.00000 -999.00000 680.00000 -999.00000 
0.42417 0.91440 -0.00600 -0.10124 251.93554 0.00000 272.06059 0.00000 -999.00000 680.00000 -999.00000 
0.43235 0.91440 -0.00749 -0.08694 245.83250 0.00000 272.06729 0.00000 -999.00000 680.00000 -999.00000 
0.44052 0.91440 -0.00900 -0.07249 239.43858 0.00000 272.07393 0.00000 -999.00000 680.00000 -999.00000 
0.44868 0.91440 -0.01052 -0.05788 232.72473 0.00000 272.08048 0.00000 -999.00000 680.00000 -999.00000 
0.45685 0.91440 -0.01206 -0.04310 225.66261 0.00000 272.08693 0.00000 -999.00000 680.00000 -999.00000 
0.46501 0.91440 -0.01362 -0.02817 218.22785 0.00000 272.09323 0.00000 -999.00000 680.00000 -999.00000 
0.47317 0.91440 -0.01520 -0.01307 210.41062 0.00000 272.09934 0.00000 -999.00000 680.00000 -999.00000 
0.48132 0.91440 -0.01679 0.00217 202.21307 0.00000 272.10522 0.00000 -999.00000 680.00000 -999.00000 
0.48947 0.91440 -0.01840 0.01750 193.62697 0.00000 272.11076 0.00000 -999.00000 680.00000 -999.00000 
0.49762 0.91440 -0.02003 0.03276 184.62133 0.00000 272.11581 0.00000 -999.00000 680.00000 -999.00000 
0.50577 0.91440 -0.02168 0.04745 175.31774 0.00000 272.12004 0.00000 -999.00000 680.00000 -999.00000 
0.51391 0.91440 -0.02335 0.06079 166.42314 0.00000 272.12328 0.00000 -999.00000 680.00000 -999.00000 
0.52131 0.91440 -0.02489 0.07489 159.15800 0.00000 272.12737 0.00000 -999.00000 680.00000 -999.00000 
0.52594 0.91440 -0.02586 0.08546 155.25383 0.00000 272.13109 0.00000 -999.00000 680.00000 -999.00000 
0.52883 0.91440 -0.02646 0.09297 157.60603 0.00000 272.13653 0.00000 -999.00000 680.00000 -999.00000 
0.53064 0.91440 -0.02685 0.09079 170.69365 0.00000 272.14175 0.00000 -999.00000 680.00000 -999.00000 
0.53177 0.91440 -0.02709 0.12819 184.24367 0.00000 272.16862 0.00000 -999.00000 680.00000 -999.00000 
0.53247 0.91440 -0.02724 -0.05560 194.42944 0.00000 272.07029 0.00000 -999.00000 680.00000 -999.00000 
0.53246 0.91440 -0.02746 0.00219 165.51859 0.00000 272.08767 0.00000 -999.00000 680.00000 -999.00000 
0.53244 0.91440 -0.02768 0.05686 134.26673 0.00000 272.10156 0.00000 -999.00000 680.00000 -999.00000 
0.53243 0.91440 -0.02791 0.05255 128.07195 0.00000 272.09426 0.00000 -999.00000 680.00000 -999.00000 

ZONE T="SLICE_Y_0p9144_BINS03_KS_0p5mm_CUTDATA"
0.53243 0.91440 -0.02791 0.05255 128.07195 0.00000 272.09426 0.00000 -999.00000 680.00000 -999.00000 
0.53241 0.91440 -0.02813 0.05844 113.62792 0.00000 272.08321 0.00000 -999.00000 680.00000 -999.00000 
0.53239 0.91440 -0.02835 -0.02535 123.24081 0.00000 272.04396 0.00000 -999.00000 680.00000 -999.00000 
0.53238 0.91440 -0.02858 -0.11620 143.44395 0.00000 272.01194 0.00000 -999.00000 680.00000 -999.00000 
0.53166 0.91440 -0.02863 0.14995 249.33675 0.00000 272.20034 0.00000 -999.00000 680.00000 -999.00000 
0.53051 0.91440 -0.02871 0.09276 245.02235 0.00000 272.16756 0.00000 -999.00000 680.00000 -999.00000 
0.52867 0.91440 -0.02883 0.09741 235.60552 0.00000 272.16795 0.00000 -999.00000 680.00000 -999.00000 
0.52572 0.91440 -0.02903 0.08870 235.72294 0.00000 272.16313 0.00000 -999.00000 680.00000 -999.00000 
0.52100 0.91440 -0.02935 0.08013 240.30559 0.00000 272.15947 0.00000 -999.00000 680.00000 -999.00000 
0.51345 0.91440 -0.02984 0.06896 246.57892 0.00000 272.15471 0.00000 -999.00000 680.00000 -999.00000 
0.50524 0.91440 -0.03035 0.05896 252.92125 0.00000 272.15054 0.00000 -999.00000 680.00000 -999.00000 
0.49702 0.91440 -0.03085 0.04886 258.74441 0.00000 272.14614 0.00000 -999.00000 680.00000 -999.00000 
0.48880 0.91440 -0.03133 0.03930 263.99887 0.00000 272.14186 0.00000 -999.00000 680.00000 -999.00000 
0.48058 0.91440 -0.03179 0.03043 268.79676 0.00000 272.13784 0.00000 -999.00000 680.00000 -999.00000 
0.47236 0.91440 -0.03223 0.02224 273.23041 0.00000 272.13409 0.00000 -999.00000 680.00000 -999.00000 
0.46413 0.91440 -0.03265 0.01464 277.35476 0.00000 272.13058 0.00000 -999.00000 680.00000 -999.00000 
0.45591 0.91440 -0.03305 0.00754 281.21480 0.00000 272.12729 0.00000 -999.00000 680.00000 -999.00000 
0.44769 0.91440 -0.03344 0.00089 284.84794 0.00000 272.12419 0.00000 -999.00000 680.00000 -999.00000 
0.43946 0.91440 -0.03381 -0.00536 288.28572 0.00000 272.12127 0.00000 -999.00000 680.00000 -999.00000 
0.43124 0.91440 -0.03417 -0.01127 291.56066 0.00000 272.11849 0.00000 -999.00000 680.00000 -999.00000 
0.42301 0.91440 -0.03450 -0.01689 294.70234 0.00000 272.11584 0.00000 -999.00000 680.00000 -999.00000 
0.41478 0.91440 -0.03482 -0.02223 297.72926 0.00000 272.11332 0.00000 -999.00000 680.00000 -999.00000 
0.40656 0.91440 -0.03513 -0.02733 300.66392 0.00000 272.11090 0.00000 -999.00000 680.00000 -999.00000 
0.39833 0.91440 -0.03542 -0.03224 303.52943 0.00000 272.10858 0.00000 -999.00000 680.00000 -999.00000 
0.39010 0.91440 -0.03569 -0.03697 306.34123 0.00000 272.10633 0.00000 -999.00000 680.00000 -999.00000 
0.38187 0.91440 -0.03594 -0.04153 309.11039 0.00000 272.10417 0.00000 -999.00000 680.00000 -999.00000 
0.37364 0.91440 -0.03618 -0.04594 311.85022 0.00000 272.10208 0.00000 -999.00000 680.00000 -999.00000 
0.36541 0.91440 -0.03640 -0.05024 314.57819 0.00000 272.10005 0.00000 -999.00000 680.00000 -999.00000 
0.35718 0.91440 -0.03660 -0.05442 317.30109 0.00000 272.09807 0.00000 -999.00000 680.00000 -999.00000 
0.34895 0.91440 -0.03678 -0.05848 320.02412 0.00000 272.09615 0.00000 -999.00000 680.00000 -999.00000 
0.34072 0.91440 -0.03695 -0.06245 322.75244 0.00000 272.09428 0.00000 -999.00000 680.00000 -999.00000 
0.33249 0.91440 -0.03709 -0.06632 325.49808 0.00000 272.09246 0.00000 -999.00000 680.00000 -999.00000 
0.32425 0.91440 -0.03722 -0.07009 328.26697 0.00000 272.09069 0.00000 -999.00000 680.00000 -999.00000 
0.31602 0.91440 -0.03733 -0.07379 331.06198 0.00000 272.08896 0.00000 -999.00000 680.00000 -999.00000 
0.30779 0.91440 -0.03741 -0.07740 333.89686 0.00000 272.08728 0.00000 -999.00000 680.00000 -999.00000 
0.29956 0.91440 -0.03747 -0.08092 336.79304 0.00000 272.08565 0.00000 -999.00000 680.00000 -999.00000 
0.29132 0.91440 -0.03751 -0.08435 339.75478 0.00000 272.08407 0.00000 -999.00000 680.00000 -999.00000 
0.28309 0.91440 -0.03753 -0.08767 342.76558 0.00000 272.08255 0.00000 -999.00000 680.00000 -999.00000 
0.27486 0.91440 -0.03752 -0.09085 345.82030 0.00000 272.08111 0.00000 -999.00000 680.00000 -999.00000 
0.26662 0.91440 -0.03749 -0.09388 348.93048 0.00000 272.07975 0.00000 -999.00000 680.00000 -999.00000 
0.25839 0.91440 -0.03742 -0.09673 352.10749 0.00000 272.07850 0.00000 -999.00000 680.00000 -999.00000 
0.25016 0.91440 -0.03733 -0.09939 355.36102 0.00000 272.07735 0.00000 -999.00000 680.00000 -999.00000 
0.24193 0.91440 -0.03721 -0.10184 358.69837 0.00000 272.07633 0.00000 -999.00000 680.00000 -999.00000 
0.23369 0.91440 -0.03706 -0.10404 362.13376 0.00000 272.07544 0.00000 -999.00000 680.00000 -999.00000 
0.22546 0.91440 -0.03687 -0.10596 365.68793 0.00000 272.07473 0.00000 -999.00000 680.00000 -999.00000 
0.21723 0.91440 -0.03665 -0.10757 369.35751 0.00000 272.07419 0.00000 -999.00000 680.00000 -999.00000 
0.20900 0.91440 -0.03639 -0.10887 373.12776 0.00000 272.07383 0.00000 -999.00000 680.00000 -999.00000 
0.20078 0.91440 -0.03609 -0.10980 376.99206 0.00000 272.07368 0.00000 -999.00000 680.00000 -999.00000 
0.19255 0.91440 -0.03576 -0.11027 380.93949 0.00000 272.07379 0.00000 -999.00000 680.00000 -999.00000 
0.18433 0.91440 -0.03537 -0.11037 384.92417 0.00000 272.07410 0.00000 -999.00000 680.00000 -999.00000 
0.17610 0.91440 -0.03494 -0.10995 388.85587 0.00000 272.07470 0.00000 -999.00000 680.00000 -999.00000 
0.16820 0.91440 -0.03448 -0.10886 392.63440 0.00000 272.07565 0.00000 -999.00000 680.00000 -999.00000 
0.16067 0.91440 -0.03400 -0.10734 396.21592 0.00000 272.07683 0.00000 -999.00000 680.00000 -999.00000 
0.15350 0.91440 -0.03349 -0.10538 399.58330 0.00078 271.76896 0.50000 -999.00000 680.00000 -999.00000 
0.14668 0.91440 -0.03297 -0.10300 402.71661 0.00243 271.12086 1.00000 -999.00000 680.00000 -999.00000 
0.14019 0.91440 -0.03243 -0.10014 405.63936 0.00420 270.43699 1.00000 -999.00000 680.00000 -999.00000 
0.13400 0.91440 -0.03188 -0.09682 408.36251 0.00601 270.08410 1.00000 -999.00000 680.00000 -999.00000 
0.12812 0.91440 -0.03132 -0.09312 410.90155 0.00784 270.10085 1.00000 -999.00000 680.00000 -999.00000 
0.12252 0.91440 -0.03075 -0.08896 413.32804 0.00969 270.15235 1.00000 -999.00000 680.00000 -999.00000 
0.11719 0.91440 -0.03017 -0.08439 415.69089 0.01156 270.25386 1.00000 -999.00000 680.00000 -999.00000 
0.11212 0.91440 -0.02959 -0.07948 418.01181 0.01345 271.73961 0.98132 -999.00000 680.00000 -999.00000 
0.10729 0.91440 -0.02901 -0.07416 420.35789 0.01534 273.15000 0.72360 -999.00000 680.00000 -999.00000 
0.10270 0.91440 -0.02842 -0.06848 422.73947 0.01724 273.15000 0.40250 -999.00000 680.00000 -999.00000 
0.09832 0.91440 -0.02783 -0.06253 425.11234 0.01914 273.15000 0.27896 -999.00000 680.00000 -999.00000 
0.09416 0.91440 -0.02725 -0.05604 427.32361 0.02104 273.15000 0.21232 -999.00000 680.00000 -999.00000 
0.09021 0.91440 -0.02667 -0.05088 429.27220 0.02293 273.15000 0.17049 -999.00000 680.00000 -999.00000 
0.08644 0.91440 -0.02609 -0.04303 433.17776 0.02487 273.15000 0.14571 -999.00000 680.00000 -999.00000 
0.08262 0.91440 -0.02547 -0.03397 438.23073 0.02690 273.15000 0.13051 -999.00000 680.00000 -999.00000 
0.07881 0.91440 -0.02483 -0.02665 442.38041 0.02905 273.15000 0.11767 -999.00000 680.00000 -999.00000 
0.07500 0.91440 -0.02417 -0.01730 446.72271 0.03131 273.15000 0.10726 -999.00000 680.00000 -999.00000 
0.07120 0.91440 -0.02347 -0.00692 451.37624 0.03371 273.15000 0.09874 -999.00000 680.00000 -999.00000 
0.06740 0.91440 -0.02274 0.00461 456.29965 0.03625 273.15000 0.09163 -999.00000 680.00000 -999.00000 
0.06361 0.91440 -0.02197 0.01743 461.48291 0.03896 273.15000 0.08560 -999.00000 680.00000 -999.00000 
0.05982 0.91440 -0.02117 0.03161 466.92129 0.04185 273.15000 0.08042 -999.00000 680.00000 -999.00000 
0.05605 0.91440 -0.02033 0.04738 472.64571 0.04494 273.15000 0.07593 -999.00000 680.00000 -999.00000 
0.05228 0.91440 -0.01945 0.06506 478.67315 0.05138 273.15000 0.07209 -999.00000 680.00000 -999.00000 
0.04853 0.91440 -0.01853 0.08481 485.02825 0.06223 273.15000 0.06895 -999.00000 680.00000 -999.00000 
0.04478 0.91440 -0.01755 0.10711 491.73248 0.07509 273.15000 0.06644 -999.00000 680.00000 -999.00000 
0.04106 0.91440 -0.01653 0.13237 498.74366 0.08952 273.15000 0.06446 -999.00000 680.00000 -999.00000 
0.03734 0.91440 -0.01544 0.16112 505.94095 0.10566 273.15000 0.06295 -999.00000 680.00000 -999.00000 
0.03365 0.91440 -0.01429 0.19418 513.08903 0.12386 273.15000 0.06184 -999.00000 680.00000 -999.00000 
0.02998 0.91440 -0.01306 0.23245 519.78166 0.14446 273.15000 0.06107 -999.00000 680.00000 -999.00000 