#++++++++++++++++++++++++++++++++++++++++++++++++++++++++++++++++++++++++++++++++++++++++++++++++++++++++++++++++++++
#
#   IPW-3 Ice Shape DATA SUBMITTAL FORM for Test Case NACA0012_AE3932, May 18th 2026
#
#       NOMENCLATURE:
#             X_ICED [m]:  X-coordinate of the iced surface
#             Y_ICED [m]:  Y-coordinate of the iced surface
#             Z_ICED [m]:  Z-coordinate of the iced surface
#
#                XXmm:  Roughness height used for the case, in mm.
#                       In the zone name, use the format KS_XXmm.
#                       For example, if k_s = 1.5 mm, use KS_1p5mm. 
#                       For Variable roughness, use KS_VAR
#
#    FLOW CONDITIONS:
#                                   AOA: 4.0 deg
#                           Mach Number: 0.3151 [-]
#       Mean aerodynamic chord (M.A.C.): 0.5334 [m]
#                       Reynolds Number: 3.9795 million (based on MAC)
#                       Freestream Temp: 267.55 [K]
#                        Reference area: 0.97548 [m2]
#               Moment Reference Center: 0.13335, 0, 0 [m] (X, Y, Z)
#
#    ICING CONDITIONS:
#                           Icing Time: 420 [s]
#                                  LWC: 0.55 [g/m3]
#                                  MVD: 20 [μm]
#
#              NOTES: 1. Please use at least 5 decimal places in the numerical values
#                     2. If data are NOT provided, please fill data fields with a numerical value of "-999" 
#
#++++++++++++++++++++++++++++++++++++++++++++++++++++++++++++++++++++++++++++++++++++++++++++++++++++++++++++++++++++

AUXDATA NUM_LAYERS  = 7
                                              
VARIABLES = "X_ICED" "Y_ICED" "Z_ICED"

ZONE T="SLICE_Y_0p9144_BINS01_KS_0p5334mm_SINGLE_LAYER"
0.53242 0.91440 -0.02795 
0.53242 0.91440 -0.02804 
0.53241 0.91440 -0.02813 
0.53240 0.91440 -0.02822 
0.53240 0.91440 -0.02831 
0.53239 0.91440 -0.02840 
0.53238 0.91440 -0.02849 
0.53238 0.91440 -0.02858 
0.53213 0.91440 -0.02859 
0.53172 0.91440 -0.02862 
0.53107 0.91440 -0.02867 
0.53003 0.91440 -0.02874 
0.52837 0.91440 -0.02885 
0.52580 0.91440 -0.02903 
0.52324 0.91440 -0.02920 
0.52067 0.91440 -0.02937 
0.51810 0.91440 -0.02954 
0.51553 0.91440 -0.02971 
0.51296 0.91440 -0.02987 
0.51039 0.91440 -0.03003 
0.50782 0.91440 -0.03019 
0.50525 0.91440 -0.03035 
0.50268 0.91440 -0.03051 
0.50011 0.91440 -0.03067 
0.49754 0.91440 -0.03082 
0.49497 0.91440 -0.03097 
0.49240 0.91440 -0.03112 
0.48983 0.91440 -0.03127 
0.48726 0.91440 -0.03141 
0.48469 0.91440 -0.03156 
0.48212 0.91440 -0.03170 
0.47955 0.91440 -0.03184 
0.47698 0.91440 -0.03198 
0.47441 0.91440 -0.03212 
0.47184 0.91440 -0.03225 
0.46927 0.91440 -0.03239 
0.46670 0.91440 -0.03252 
0.46413 0.91440 -0.03265 
0.46156 0.91440 -0.03278 
0.45899 0.91440 -0.03290 
0.45642 0.91440 -0.03303 
0.45384 0.91440 -0.03315 
0.45127 0.91440 -0.03327 
0.44870 0.91440 -0.03339 
0.44613 0.91440 -0.03351 
0.44356 0.91440 -0.03363 
0.44099 0.91440 -0.03374 
0.43841 0.91440 -0.03386 
0.43584 0.91440 -0.03397 
0.43327 0.91440 -0.03408 
0.43070 0.91440 -0.03419 
0.42813 0.91440 -0.03430 
0.42555 0.91440 -0.03440 
0.42298 0.91440 -0.03450 
0.42041 0.91440 -0.03461 
0.41784 0.91440 -0.03471 
0.41527 0.91440 -0.03481 
0.41269 0.91440 -0.03490 
0.41012 0.91440 -0.03500 
0.40755 0.91440 -0.03509 
0.40498 0.91440 -0.03519 
0.40240 0.91440 -0.03528 
0.39983 0.91440 -0.03537 
0.39726 0.91440 -0.03545 
0.39468 0.91440 -0.03554 
0.39211 0.91440 -0.03562 
0.38954 0.91440 -0.03571 
0.38697 0.91440 -0.03579 
0.38439 0.91440 -0.03587 
0.38182 0.91440 -0.03594 
0.37925 0.91440 -0.03602 
0.37667 0.91440 -0.03609 
0.37410 0.91440 -0.03617 
0.37153 0.91440 -0.03624 
0.36895 0.91440 -0.03631 
0.36638 0.91440 -0.03637 
0.36381 0.91440 -0.03644 
0.36123 0.91440 -0.03650 
0.35866 0.91440 -0.03657 
0.35609 0.91440 -0.03663 
0.35351 0.91440 -0.03668 
0.35094 0.91440 -0.03674 
0.34837 0.91440 -0.03680 
0.34579 0.91440 -0.03685 
0.34322 0.91440 -0.03690 
0.34064 0.91440 -0.03695 
0.33807 0.91440 -0.03700 
0.33550 0.91440 -0.03704 
0.33292 0.91440 -0.03709 
0.33035 0.91440 -0.03713 
0.32777 0.91440 -0.03717 
0.32520 0.91440 -0.03721 
0.32263 0.91440 -0.03724 
0.32005 0.91440 -0.03728 
0.31748 0.91440 -0.03731 
0.31490 0.91440 -0.03734 
0.31233 0.91440 -0.03737 
0.30976 0.91440 -0.03739 
0.30718 0.91440 -0.03742 
0.30461 0.91440 -0.03744 
0.30203 0.91440 -0.03746 
0.29946 0.91440 -0.03747 
0.29689 0.91440 -0.03749 
0.29431 0.91440 -0.03750 
0.29174 0.91440 -0.03751 
0.28916 0.91440 -0.03752 
0.28659 0.91440 -0.03753 
0.28401 0.91440 -0.03753 
0.28144 0.91440 -0.03753 
0.27887 0.91440 -0.03753 
0.27629 0.91440 -0.03752 
0.27372 0.91440 -0.03752 
0.27114 0.91440 -0.03751 
0.26857 0.91440 -0.03750 
0.26599 0.91440 -0.03748 
0.26342 0.91440 -0.03746 
0.26085 0.91440 -0.03744 
0.25827 0.91440 -0.03742 
0.25570 0.91440 -0.03740 
0.25312 0.91440 -0.03737 
0.25055 0.91440 -0.03734 
0.24798 0.91440 -0.03730 
0.24540 0.91440 -0.03727 
0.24283 0.91440 -0.03723 
0.24025 0.91440 -0.03718 
0.23768 0.91440 -0.03714 
0.23511 0.91440 -0.03709 
0.23253 0.91440 -0.03703 
0.22996 0.91440 -0.03698 
0.22738 0.91440 -0.03692 
0.22481 0.91440 -0.03686 
0.22224 0.91440 -0.03679 
0.21966 0.91440 -0.03672 
0.21709 0.91440 -0.03665 
0.21452 0.91440 -0.03657 
0.21195 0.91440 -0.03649 
0.20937 0.91440 -0.03641 
0.20680 0.91440 -0.03632 
0.20423 0.91440 -0.03622 
0.20165 0.91440 -0.03613 
0.19908 0.91440 -0.03603 
0.19651 0.91440 -0.03592 
0.19394 0.91440 -0.03582 
0.19137 0.91440 -0.03570 
0.18879 0.91440 -0.03559 
0.18622 0.91440 -0.03546 
0.18365 0.91440 -0.03534 
0.18108 0.91440 -0.03521 
0.17851 0.91440 -0.03507 
0.17594 0.91440 -0.03493 
0.17337 0.91440 -0.03479 
0.17080 0.91440 -0.03464 
0.16823 0.91440 -0.03448 
0.16566 0.91440 -0.03432 
0.16309 0.91440 -0.03416 
0.16052 0.91440 -0.03399 
0.15796 0.91440 -0.03381 
0.15539 0.91440 -0.03363 
0.15282 0.91440 -0.03344 
0.15025 0.91440 -0.03325 
0.14769 0.91440 -0.03305 
0.14512 0.91440 -0.03285 
0.14255 0.91440 -0.03263 
0.13999 0.91440 -0.03242 
0.13743 0.91440 -0.03219 
0.13486 0.91440 -0.03196 
0.13230 0.91440 -0.03172 
0.12974 0.91440 -0.03148 
0.12717 0.91440 -0.03123 
0.12461 0.91440 -0.03097 
0.12205 0.91440 -0.03070 
0.11949 0.91440 -0.03043 
0.11693 0.91440 -0.03015 
0.11438 0.91440 -0.02986 
0.11182 0.91440 -0.02956 
0.10924 0.91440 -0.02925 
0.10679 0.91440 -0.02894 
0.10445 0.91440 -0.02865 
0.10222 0.91440 -0.02836 
0.10011 0.91440 -0.02808 
0.09809 0.91440 -0.02780 
0.09617 0.91440 -0.02754 
0.09434 0.91440 -0.02728 
0.09260 0.91440 -0.02702 
0.09095 0.91440 -0.02678 
0.08937 0.91440 -0.02654 
0.08787 0.91440 -0.02631 
0.08644 0.91440 -0.02609 
0.08501 0.91440 -0.02586 
0.08359 0.91440 -0.02563 
0.08216 0.91440 -0.02540 
0.08073 0.91440 -0.02516 
0.07931 0.91440 -0.02492 
0.07788 0.91440 -0.02467 
0.07646 0.91440 -0.02442 
0.07503 0.91440 -0.02417 
0.07361 0.91440 -0.02391 
0.07219 0.91440 -0.02365 
0.07077 0.91440 -0.02339 
0.06935 0.91440 -0.02312 
0.06793 0.91440 -0.02284 
0.06651 0.91440 -0.02256 
0.06509 0.91440 -0.02228 
0.06367 0.91440 -0.02199 
0.06226 0.91440 -0.02169 
0.06083 0.91440 -0.02143 
0.05940 0.91440 -0.02122 
0.05797 0.91440 -0.02101 
0.05654 0.91440 -0.02081 
0.05511 0.91440 -0.02061 
0.05367 0.91440 -0.02040 
0.05224 0.91440 -0.02019 
0.05081 0.91440 -0.01998 
0.04937 0.91440 -0.01977 
0.04794 0.91440 -0.01956 
0.04651 0.91440 -0.01935 
0.04507 0.91440 -0.01913 
0.04364 0.91440 -0.01892 
0.04220 0.91440 -0.01870 
0.04077 0.91440 -0.01848 
0.03933 0.91440 -0.01826 
0.03789 0.91440 -0.01804 
0.03646 0.91440 -0.01781 
0.03502 0.91440 -0.01759 
0.03358 0.91440 -0.01736 
0.03213 0.91440 -0.01713 
0.03069 0.91440 -0.01690 
0.02925 0.91440 -0.01667 
0.02783 0.91440 -0.01645 
0.02641 0.91440 -0.01635 
0.02538 0.91440 -0.01635 
0.02445 0.91440 -0.01673 
0.02341 0.91440 -0.01706 
0.02213 0.91440 -0.01692 
0.01967 0.91440 -0.01714 
0.01719 0.91440 -0.01708 
0.01501 0.91440 -0.01690 
0.01293 0.91440 -0.01628 
0.01113 0.91440 -0.01567 
0.00944 0.91440 -0.01479 
0.00789 0.91440 -0.01389 
0.00642 0.91440 -0.01287 
0.00502 0.91440 -0.01180 
0.00365 0.91440 -0.01065 
0.00233 0.91440 -0.00942 
0.00104 0.91440 -0.00812 
-0.00016 0.91440 -0.00679 
-0.00122 0.91440 -0.00555 
-0.00221 0.91440 -0.00445 
-0.00309 0.91440 -0.00357 
-0.00387 0.91440 -0.00278 
-0.00458 0.91440 -0.00198 
-0.00522 0.91440 -0.00123 
-0.00590 0.91440 -0.00043 
-0.00656 0.91440 0.00048 
-0.00723 0.91440 0.00151 
-0.00788 0.91440 0.00268 
-0.00863 0.91440 0.00412 
-0.00921 0.91440 0.00585 
-0.00972 0.91440 0.00791 
-0.00976 0.91440 0.01019 
-0.00939 0.91440 0.01285 
-0.00823 0.91440 0.01552 
-0.00634 0.91440 0.01820 
-0.00365 0.91440 0.02017 
-0.00187 0.91440 0.02088 
-0.00026 0.91440 0.02135 
0.00141 0.91440 0.02162 
0.00283 0.91440 0.02140 
0.00391 0.91440 0.02085 
0.00475 0.91440 0.02037 
0.00584 0.91440 0.01981 
0.00695 0.91440 0.01929 
0.00823 0.91440 0.01931 
0.00951 0.91440 0.01996 
0.01079 0.91440 0.02062 
0.01210 0.91440 0.02123 
0.01342 0.91440 0.02180 
0.01475 0.91440 0.02234 
0.01610 0.91440 0.02285 
0.01745 0.91440 0.02334 
0.01882 0.91440 0.02379 
0.02019 0.91440 0.02422 
0.02157 0.91440 0.02464 
0.02295 0.91440 0.02503 
0.02434 0.91440 0.02540 
0.02574 0.91440 0.02576 
0.02713 0.91440 0.02610 
0.02854 0.91440 0.02642 
0.02994 0.91440 0.02673 
0.03135 0.91440 0.02703 
0.03276 0.91440 0.02731 
0.03417 0.91440 0.02758 
0.03559 0.91440 0.02784 
0.03701 0.91440 0.02809 
0.03843 0.91440 0.02833 
0.03985 0.91440 0.02856 
0.04127 0.91440 0.02878 
0.04269 0.91440 0.02899 
0.04412 0.91440 0.02919 
0.04554 0.91440 0.02939 
0.04697 0.91440 0.02957 
0.04840 0.91440 0.02975 
0.04983 0.91440 0.02992 
0.05126 0.91440 0.03008 
0.05269 0.91440 0.03023 
0.05412 0.91440 0.03038 
0.05555 0.91440 0.03052 
0.05698 0.91440 0.03066 
0.05842 0.91440 0.03079 
0.05985 0.91440 0.03091 
0.06129 0.91440 0.03103 
0.06272 0.91440 0.03114 
0.06415 0.91440 0.03125 
0.06559 0.91440 0.03135 
0.06703 0.91440 0.03144 
0.06846 0.91440 0.03154 
0.06990 0.91440 0.03162 
0.07134 0.91440 0.03170 
0.07277 0.91440 0.03178 
0.07421 0.91440 0.03185 
0.07565 0.91440 0.03192 
0.07709 0.91440 0.03198 
0.07852 0.91440 0.03204 
0.07996 0.91440 0.03209 
0.08140 0.91440 0.03214 
0.08284 0.91440 0.03218 
0.08428 0.91440 0.03223 
0.08571 0.91440 0.03226 
0.08715 0.91440 0.03230 
0.08859 0.91440 0.03233 
0.09003 0.91440 0.03235 
0.09147 0.91440 0.03238 
0.09298 0.91440 0.03240 
0.09456 0.91440 0.03241 
0.09623 0.91440 0.03243 
0.09798 0.91440 0.03244 
0.09981 0.91440 0.03244 
0.10174 0.91440 0.03244 
0.10376 0.91440 0.03243 
0.10589 0.91440 0.03242 
0.10812 0.91440 0.03240 
0.11046 0.91440 0.03237 
0.11292 0.91440 0.03233 
0.11550 0.91440 0.03228 
0.11808 0.91440 0.03222 
0.12066 0.91440 0.03215 
0.12323 0.91440 0.03208 
0.12581 0.91440 0.03200 
0.12839 0.91440 0.03191 
0.13096 0.91440 0.03181 
0.13354 0.91440 0.03170 
0.13611 0.91440 0.03159 
0.13869 0.91440 0.03147 
0.14127 0.91440 0.03134 
0.14384 0.91440 0.03121 
0.14641 0.91440 0.03107 
0.14899 0.91440 0.03092 
0.15156 0.91440 0.03077 
0.15414 0.91440 0.03061 
0.15671 0.91440 0.03045 
0.15928 0.91440 0.03027 
0.16185 0.91440 0.03010 
0.16442 0.91440 0.02992 
0.16700 0.91440 0.02973 
0.16957 0.91440 0.02954 
0.17214 0.91440 0.02934 
0.17471 0.91440 0.02913 
0.17728 0.91440 0.02893 
0.17985 0.91440 0.02871 
0.18242 0.91440 0.02849 
0.18498 0.91440 0.02827 
0.18755 0.91440 0.02804 
0.19012 0.91440 0.02781 
0.19269 0.91440 0.02757 
0.19525 0.91440 0.02733 
0.19782 0.91440 0.02708 
0.20039 0.91440 0.02683 
0.20295 0.91440 0.02658 
0.20552 0.91440 0.02632 
0.20808 0.91440 0.02606 
0.21065 0.91440 0.02579 
0.21321 0.91440 0.02552 
0.21577 0.91440 0.02525 
0.21834 0.91440 0.02497 
0.22090 0.91440 0.02469 
0.22346 0.91440 0.02440 
0.22602 0.91440 0.02411 
0.22859 0.91440 0.02382 
0.23115 0.91440 0.02353 
0.23371 0.91440 0.02323 
0.23627 0.91440 0.02292 
0.23883 0.91440 0.02262 
0.24139 0.91440 0.02231 
0.24395 0.91440 0.02200 
0.24651 0.91440 0.02168 
0.24906 0.91440 0.02136 
0.25162 0.91440 0.02104 
0.25418 0.91440 0.02072 
0.25674 0.91440 0.02039 
0.25929 0.91440 0.02006 
0.26185 0.91440 0.01973 
0.26441 0.91440 0.01939 
0.26696 0.91440 0.01905 
0.26952 0.91440 0.01871 
0.27207 0.91440 0.01837 
0.27463 0.91440 0.01802 
0.27718 0.91440 0.01767 
0.27974 0.91440 0.01732 
0.28229 0.91440 0.01696 
0.28484 0.91440 0.01661 
0.28740 0.91440 0.01625 
0.28995 0.91440 0.01589 
0.29250 0.91440 0.01552 
0.29505 0.91440 0.01516 
0.29761 0.91440 0.01479 
0.30016 0.91440 0.01442 
0.30271 0.91440 0.01404 
0.30526 0.91440 0.01367 
0.30781 0.91440 0.01329 
0.31036 0.91440 0.01291 
0.31291 0.91440 0.01253 
0.31546 0.91440 0.01214 
0.31801 0.91440 0.01176 
0.32056 0.91440 0.01137 
0.32311 0.91440 0.01098 
0.32565 0.91440 0.01059 
0.32820 0.91440 0.01019 
0.33075 0.91440 0.00980 
0.33330 0.91440 0.00940 
0.33584 0.91440 0.00900 
0.33839 0.91440 0.00860 
0.34094 0.91440 0.00819 
0.34348 0.91440 0.00779 
0.34603 0.91440 0.00738 
0.34857 0.91440 0.00697 
0.35112 0.91440 0.00656 
0.35366 0.91440 0.00615 
0.35621 0.91440 0.00573 
0.35875 0.91440 0.00531 
0.36130 0.91440 0.00489 
0.36384 0.91440 0.00447 
0.36638 0.91440 0.00405 
0.36893 0.91440 0.00363 
0.37147 0.91440 0.00320 
0.37401 0.91440 0.00278 
0.37655 0.91440 0.00235 
0.37910 0.91440 0.00192 
0.38164 0.91440 0.00149 
0.38418 0.91440 0.00105 
0.38672 0.91440 0.00062 
0.38926 0.91440 0.00018 
0.39180 0.91440 -0.00026 
0.39434 0.91440 -0.00070 
0.39688 0.91440 -0.00114 
0.39942 0.91440 -0.00159 
0.40196 0.91440 -0.00203 
0.40450 0.91440 -0.00248 
0.40704 0.91440 -0.00293 
0.40958 0.91440 -0.00338 
0.41212 0.91440 -0.00383 
0.41466 0.91440 -0.00428 
0.41719 0.91440 -0.00474 
0.41973 0.91440 -0.00519 
0.42227 0.91440 -0.00565 
0.42480 0.91440 -0.00611 
0.42734 0.91440 -0.00657 
0.42988 0.91440 -0.00704 
0.43241 0.91440 -0.00750 
0.43495 0.91440 -0.00797 
0.43748 0.91440 -0.00843 
0.44002 0.91440 -0.00890 
0.44255 0.91440 -0.00937 
0.44509 0.91440 -0.00985 
0.44762 0.91440 -0.01032 
0.45016 0.91440 -0.01080 
0.45269 0.91440 -0.01127 
0.45522 0.91440 -0.01175 
0.45776 0.91440 -0.01223 
0.46029 0.91440 -0.01272 
0.46282 0.91440 -0.01320 
0.46535 0.91440 -0.01369 
0.46789 0.91440 -0.01417 
0.47042 0.91440 -0.01466 
0.47295 0.91440 -0.01515 
0.47548 0.91440 -0.01565 
0.47801 0.91440 -0.01614 
0.48054 0.91440 -0.01664 
0.48307 0.91440 -0.01713 
0.48560 0.91440 -0.01763 
0.48813 0.91440 -0.01813 
0.49066 0.91440 -0.01864 
0.49318 0.91440 -0.01914 
0.49571 0.91440 -0.01965 
0.49824 0.91440 -0.02016 
0.50077 0.91440 -0.02067 
0.50329 0.91440 -0.02118 
0.50582 0.91440 -0.02169 
0.50835 0.91440 -0.02221 
0.51087 0.91440 -0.02273 
0.51340 0.91440 -0.02325 
0.51592 0.91440 -0.02377 
0.51845 0.91440 -0.02429 
0.52097 0.91440 -0.02482 
0.52349 0.91440 -0.02534 
0.52602 0.91440 -0.02587 
0.52854 0.91440 -0.02640 
0.53017 0.91440 -0.02675 
0.53119 0.91440 -0.02696 
0.53183 0.91440 -0.02710 
0.53222 0.91440 -0.02718 
0.53247 0.91440 -0.02724 
0.53247 0.91440 -0.02733 
0.53246 0.91440 -0.02741 
0.53245 0.91440 -0.02750 
0.53245 0.91440 -0.02759 
0.53244 0.91440 -0.02768 
0.53243 0.91440 -0.02777 
0.53243 0.91440 -0.02786 
0.53242 0.91440 -0.02795 

ZONE T="SLICE_Y_0p9144_BINS03_KS_0p5334mm_SINGLE_LAYER"
0.53242 0.91440 -0.02795 
0.53242 0.91440 -0.02804 
0.53241 0.91440 -0.02813 
0.53240 0.91440 -0.02822 
0.53240 0.91440 -0.02831 
0.53239 0.91440 -0.02840 
0.53238 0.91440 -0.02849 
0.53238 0.91440 -0.02858 
0.53213 0.91440 -0.02859 
0.53172 0.91440 -0.02862 
0.53107 0.91440 -0.02867 
0.53003 0.91440 -0.02874 
0.52837 0.91440 -0.02885 
0.52580 0.91440 -0.02903 
0.52324 0.91440 -0.02920 
0.52067 0.91440 -0.02937 
0.51810 0.91440 -0.02954 
0.51553 0.91440 -0.02971 
0.51296 0.91440 -0.02987 
0.51039 0.91440 -0.03003 
0.50782 0.91440 -0.03019 
0.50525 0.91440 -0.03035 
0.50268 0.91440 -0.03051 
0.50011 0.91440 -0.03067 
0.49754 0.91440 -0.03082 
0.49497 0.91440 -0.03097 
0.49240 0.91440 -0.03112 
0.48983 0.91440 -0.03127 
0.48726 0.91440 -0.03141 
0.48469 0.91440 -0.03156 
0.48212 0.91440 -0.03170 
0.47955 0.91440 -0.03184 
0.47698 0.91440 -0.03198 
0.47441 0.91440 -0.03212 
0.47184 0.91440 -0.03225 
0.46927 0.91440 -0.03239 
0.46670 0.91440 -0.03252 
0.46413 0.91440 -0.03265 
0.46156 0.91440 -0.03278 
0.45899 0.91440 -0.03290 
0.45642 0.91440 -0.03303 
0.45384 0.91440 -0.03315 
0.45127 0.91440 -0.03327 
0.44870 0.91440 -0.03339 
0.44613 0.91440 -0.03351 
0.44356 0.91440 -0.03363 
0.44099 0.91440 -0.03374 
0.43841 0.91440 -0.03386 
0.43584 0.91440 -0.03397 
0.43327 0.91440 -0.03408 
0.43070 0.91440 -0.03419 
0.42813 0.91440 -0.03430 
0.42555 0.91440 -0.03440 
0.42298 0.91440 -0.03450 
0.42041 0.91440 -0.03461 
0.41784 0.91440 -0.03471 
0.41527 0.91440 -0.03481 
0.41269 0.91440 -0.03490 
0.41012 0.91440 -0.03500 
0.40755 0.91440 -0.03509 
0.40498 0.91440 -0.03519 
0.40240 0.91440 -0.03528 
0.39983 0.91440 -0.03537 
0.39726 0.91440 -0.03545 
0.39468 0.91440 -0.03554 
0.39211 0.91440 -0.03562 
0.38954 0.91440 -0.03571 
0.38697 0.91440 -0.03579 
0.38439 0.91440 -0.03587 
0.38182 0.91440 -0.03594 
0.37925 0.91440 -0.03602 
0.37667 0.91440 -0.03609 
0.37410 0.91440 -0.03617 
0.37153 0.91440 -0.03624 
0.36895 0.91440 -0.03631 
0.36638 0.91440 -0.03637 
0.36381 0.91440 -0.03644 
0.36123 0.91440 -0.03650 
0.35866 0.91440 -0.03657 
0.35609 0.91440 -0.03663 
0.35351 0.91440 -0.03668 
0.35094 0.91440 -0.03674 
0.34837 0.91440 -0.03680 
0.34579 0.91440 -0.03685 
0.34322 0.91440 -0.03690 
0.34064 0.91440 -0.03695 
0.33807 0.91440 -0.03700 
0.33550 0.91440 -0.03704 
0.33292 0.91440 -0.03709 
0.33035 0.91440 -0.03713 
0.32777 0.91440 -0.03717 
0.32520 0.91440 -0.03721 
0.32263 0.91440 -0.03724 
0.32005 0.91440 -0.03728 
0.31748 0.91440 -0.03731 
0.31490 0.91440 -0.03734 
0.31233 0.91440 -0.03737 
0.30976 0.91440 -0.03739 
0.30718 0.91440 -0.03742 
0.30461 0.91440 -0.03744 
0.30203 0.91440 -0.03746 
0.29946 0.91440 -0.03747 
0.29689 0.91440 -0.03749 
0.29431 0.91440 -0.03750 
0.29174 0.91440 -0.03751 
0.28916 0.91440 -0.03752 
0.28659 0.91440 -0.03753 
0.28401 0.91440 -0.03753 
0.28144 0.91440 -0.03753 
0.27887 0.91440 -0.03753 
0.27629 0.91440 -0.03752 
0.27372 0.91440 -0.03752 
0.27114 0.91440 -0.03751 
0.26857 0.91440 -0.03750 
0.26599 0.91440 -0.03748 
0.26342 0.91440 -0.03746 
0.26085 0.91440 -0.03744 
0.25827 0.91440 -0.03742 
0.25570 0.91440 -0.03740 
0.25312 0.91440 -0.03737 
0.25055 0.91440 -0.03734 
0.24798 0.91440 -0.03730 
0.24540 0.91440 -0.03727 
0.24283 0.91440 -0.03723 
0.24025 0.91440 -0.03718 
0.23768 0.91440 -0.03714 
0.23511 0.91440 -0.03709 
0.23253 0.91440 -0.03703 
0.22996 0.91440 -0.03698 
0.22738 0.91440 -0.03692 
0.22481 0.91440 -0.03686 
0.22224 0.91440 -0.03679 
0.21966 0.91440 -0.03672 
0.21709 0.91440 -0.03665 
0.21452 0.91440 -0.03657 
0.21195 0.91440 -0.03649 
0.20937 0.91440 -0.03641 
0.20680 0.91440 -0.03632 
0.20423 0.91440 -0.03622 
0.20165 0.91440 -0.03613 
0.19908 0.91440 -0.03603 
0.19651 0.91440 -0.03592 
0.19394 0.91440 -0.03582 
0.19137 0.91440 -0.03570 
0.18879 0.91440 -0.03559 
0.18622 0.91440 -0.03546 
0.18365 0.91440 -0.03534 
0.18108 0.91440 -0.03521 
0.17851 0.91440 -0.03507 
0.17594 0.91440 -0.03493 
0.17337 0.91440 -0.03479 
0.17080 0.91440 -0.03464 
0.16823 0.91440 -0.03448 
0.16566 0.91440 -0.03432 
0.16309 0.91440 -0.03416 
0.16052 0.91440 -0.03399 
0.15796 0.91440 -0.03381 
0.15539 0.91440 -0.03363 
0.15282 0.91440 -0.03344 
0.15025 0.91440 -0.03325 
0.14769 0.91440 -0.03305 
0.14512 0.91440 -0.03285 
0.14255 0.91440 -0.03263 
0.13999 0.91440 -0.03242 
0.13742 0.91440 -0.03220 
0.13486 0.91440 -0.03199 
0.13229 0.91440 -0.03177 
0.12973 0.91440 -0.03154 
0.12717 0.91440 -0.03131 
0.12460 0.91440 -0.03108 
0.12204 0.91440 -0.03083 
0.11948 0.91440 -0.03058 
0.11691 0.91440 -0.03032 
0.11435 0.91440 -0.03005 
0.11179 0.91440 -0.02978 
0.10921 0.91440 -0.02950 
0.10675 0.91440 -0.02922 
0.10441 0.91440 -0.02895 
0.10218 0.91440 -0.02868 
0.10006 0.91440 -0.02842 
0.09804 0.91440 -0.02817 
0.09612 0.91440 -0.02792 
0.09429 0.91440 -0.02769 
0.09254 0.91440 -0.02745 
0.09088 0.91440 -0.02723 
0.08930 0.91440 -0.02701 
0.08780 0.91440 -0.02680 
0.08636 0.91440 -0.02660 
0.08493 0.91440 -0.02639 
0.08350 0.91440 -0.02618 
0.08207 0.91440 -0.02596 
0.08064 0.91440 -0.02575 
0.07921 0.91440 -0.02553 
0.07778 0.91440 -0.02530 
0.07635 0.91440 -0.02507 
0.07492 0.91440 -0.02484 
0.07349 0.91440 -0.02461 
0.07206 0.91440 -0.02437 
0.07063 0.91440 -0.02412 
0.06921 0.91440 -0.02388 
0.06778 0.91440 -0.02363 
0.06635 0.91440 -0.02337 
0.06493 0.91440 -0.02311 
0.06350 0.91440 -0.02285 
0.06208 0.91440 -0.02258 
0.06066 0.91440 -0.02231 
0.05923 0.91440 -0.02203 
0.05781 0.91440 -0.02175 
0.05639 0.91440 -0.02146 
0.05497 0.91440 -0.02117 
0.05356 0.91440 -0.02089 
0.05214 0.91440 -0.02064 
0.05071 0.91440 -0.02040 
0.04928 0.91440 -0.02016 
0.04785 0.91440 -0.01992 
0.04642 0.91440 -0.01968 
0.04499 0.91440 -0.01944 
0.04356 0.91440 -0.01919 
0.04213 0.91440 -0.01894 
0.04070 0.91440 -0.01869 
0.03926 0.91440 -0.01843 
0.03783 0.91440 -0.01818 
0.03640 0.91440 -0.01792 
0.03496 0.91440 -0.01765 
0.03353 0.91440 -0.01739 
0.03209 0.91440 -0.01712 
0.03066 0.91440 -0.01684 
0.02922 0.91440 -0.01657 
0.02778 0.91440 -0.01629 
0.02634 0.91440 -0.01601 
0.02493 0.91440 -0.01574 
0.02351 0.91440 -0.01559 
0.02240 0.91440 -0.01554 
0.02138 0.91440 -0.01579 
0.02026 0.91440 -0.01603 
0.01900 0.91440 -0.01585 
0.01674 0.91440 -0.01584 
0.01428 0.91440 -0.01561 
0.01208 0.91440 -0.01527 
0.01003 0.91440 -0.01454 
0.00825 0.91440 -0.01376 
0.00662 0.91440 -0.01277 
0.00513 0.91440 -0.01172 
0.00373 0.91440 -0.01058 
0.00239 0.91440 -0.00936 
0.00111 0.91440 -0.00806 
-0.00009 0.91440 -0.00674 
-0.00116 0.91440 -0.00549 
-0.00214 0.91440 -0.00439 
-0.00302 0.91440 -0.00351 
-0.00380 0.91440 -0.00273 
-0.00451 0.91440 -0.00193 
-0.00516 0.91440 -0.00117 
-0.00582 0.91440 -0.00036 
-0.00650 0.91440 0.00057 
-0.00713 0.91440 0.00162 
-0.00782 0.91440 0.00285 
-0.00848 0.91440 0.00433 
-0.00910 0.91440 0.00616 
-0.00945 0.91440 0.00827 
-0.00941 0.91440 0.01068 
-0.00881 0.91440 0.01334 
-0.00747 0.91440 0.01603 
-0.00539 0.91440 0.01850 
-0.00350 0.91440 0.01983 
-0.00203 0.91440 0.02050 
-0.00055 0.91440 0.02104 
0.00090 0.91440 0.02134 
0.00224 0.91440 0.02123 
0.00323 0.91440 0.02098 
0.00429 0.91440 0.02067 
0.00540 0.91440 0.02044 
0.00647 0.91440 0.02035 
0.00767 0.91440 0.02061 
0.00903 0.91440 0.02107 
0.01043 0.91440 0.02153 
0.01182 0.91440 0.02196 
0.01321 0.91440 0.02238 
0.01461 0.91440 0.02277 
0.01601 0.91440 0.02314 
0.01740 0.91440 0.02349 
0.01880 0.91440 0.02384 
0.02019 0.91440 0.02422 
0.02157 0.91440 0.02464 
0.02295 0.91440 0.02503 
0.02434 0.91440 0.02540 
0.02574 0.91440 0.02576 
0.02713 0.91440 0.02610 
0.02854 0.91440 0.02642 
0.02994 0.91440 0.02673 
0.03135 0.91440 0.02703 
0.03276 0.91440 0.02731 
0.03417 0.91440 0.02758 
0.03559 0.91440 0.02784 
0.03701 0.91440 0.02809 
0.03843 0.91440 0.02833 
0.03985 0.91440 0.02856 
0.04127 0.91440 0.02878 
0.04269 0.91440 0.02899 
0.04412 0.91440 0.02919 
0.04554 0.91440 0.02939 
0.04697 0.91440 0.02957 
0.04840 0.91440 0.02975 
0.04983 0.91440 0.02992 
0.05126 0.91440 0.03008 
0.05269 0.91440 0.03023 
0.05412 0.91440 0.03038 
0.05555 0.91440 0.03052 
0.05698 0.91440 0.03066 
0.05842 0.91440 0.03079 
0.05985 0.91440 0.03091 
0.06129 0.91440 0.03103 
0.06272 0.91440 0.03114 
0.06415 0.91440 0.03125 
0.06559 0.91440 0.03135 
0.06703 0.91440 0.03144 
0.06846 0.91440 0.03154 
0.06990 0.91440 0.03162 
0.07134 0.91440 0.03170 
0.07277 0.91440 0.03178 
0.07421 0.91440 0.03185 
0.07565 0.91440 0.03192 
0.07709 0.91440 0.03198 
0.07852 0.91440 0.03204 
0.07996 0.91440 0.03209 
0.08140 0.91440 0.03214 
0.08284 0.91440 0.03218 
0.08428 0.91440 0.03223 
0.08571 0.91440 0.03226 
0.08715 0.91440 0.03230 
0.08859 0.91440 0.03233 
0.09003 0.91440 0.03235 
0.09147 0.91440 0.03238 
0.09298 0.91440 0.03240 
0.09456 0.91440 0.03241 
0.09623 0.91440 0.03243 
0.09798 0.91440 0.03244 
0.09981 0.91440 0.03244 
0.10174 0.91440 0.03244 
0.10376 0.91440 0.03243 
0.10589 0.91440 0.03242 
0.10812 0.91440 0.03240 
0.11046 0.91440 0.03237 
0.11292 0.91440 0.03233 
0.11550 0.91440 0.03228 
0.11808 0.91440 0.03222 
0.12066 0.91440 0.03215 
0.12323 0.91440 0.03208 
0.12581 0.91440 0.03200 
0.12839 0.91440 0.03191 
0.13096 0.91440 0.03181 
0.13354 0.91440 0.03170 
0.13611 0.91440 0.03159 
0.13869 0.91440 0.03147 
0.14127 0.91440 0.03134 
0.14384 0.91440 0.03121 
0.14641 0.91440 0.03107 
0.14899 0.91440 0.03092 
0.15156 0.91440 0.03077 
0.15414 0.91440 0.03061 
0.15671 0.91440 0.03045 
0.15928 0.91440 0.03027 
0.16185 0.91440 0.03010 
0.16442 0.91440 0.02992 
0.16700 0.91440 0.02973 
0.16957 0.91440 0.02954 
0.17214 0.91440 0.02934 
0.17471 0.91440 0.02913 
0.17728 0.91440 0.02893 
0.17985 0.91440 0.02871 
0.18242 0.91440 0.02849 
0.18498 0.91440 0.02827 
0.18755 0.91440 0.02804 
0.19012 0.91440 0.02781 
0.19269 0.91440 0.02757 
0.19525 0.91440 0.02733 
0.19782 0.91440 0.02708 
0.20039 0.91440 0.02683 
0.20295 0.91440 0.02658 
0.20552 0.91440 0.02632 
0.20808 0.91440 0.02606 
0.21065 0.91440 0.02579 
0.21321 0.91440 0.02552 
0.21577 0.91440 0.02525 
0.21834 0.91440 0.02497 
0.22090 0.91440 0.02469 
0.22346 0.91440 0.02440 
0.22602 0.91440 0.02411 
0.22859 0.91440 0.02382 
0.23115 0.91440 0.02353 
0.23371 0.91440 0.02323 
0.23627 0.91440 0.02292 
0.23883 0.91440 0.02262 
0.24139 0.91440 0.02231 
0.24395 0.91440 0.02200 
0.24651 0.91440 0.02168 
0.24906 0.91440 0.02136 
0.25162 0.91440 0.02104 
0.25418 0.91440 0.02072 
0.25674 0.91440 0.02039 
0.25929 0.91440 0.02006 
0.26185 0.91440 0.01973 
0.26441 0.91440 0.01939 
0.26696 0.91440 0.01905 
0.26952 0.91440 0.01871 
0.27207 0.91440 0.01837 
0.27463 0.91440 0.01802 
0.27718 0.91440 0.01767 
0.27974 0.91440 0.01732 
0.28229 0.91440 0.01696 
0.28484 0.91440 0.01661 
0.28740 0.91440 0.01625 
0.28995 0.91440 0.01589 
0.29250 0.91440 0.01552 
0.29505 0.91440 0.01516 
0.29761 0.91440 0.01479 
0.30016 0.91440 0.01442 
0.30271 0.91440 0.01404 
0.30526 0.91440 0.01367 
0.30781 0.91440 0.01329 
0.31036 0.91440 0.01291 
0.31291 0.91440 0.01253 
0.31546 0.91440 0.01214 
0.31801 0.91440 0.01176 
0.32056 0.91440 0.01137 
0.32311 0.91440 0.01098 
0.32565 0.91440 0.01059 
0.32820 0.91440 0.01019 
0.33075 0.91440 0.00980 
0.33330 0.91440 0.00940 
0.33584 0.91440 0.00900 
0.33839 0.91440 0.00860 
0.34094 0.91440 0.00819 
0.34348 0.91440 0.00779 
0.34603 0.91440 0.00738 
0.34857 0.91440 0.00697 
0.35112 0.91440 0.00656 
0.35366 0.91440 0.00615 
0.35621 0.91440 0.00573 
0.35875 0.91440 0.00531 
0.36130 0.91440 0.00489 
0.36384 0.91440 0.00447 
0.36638 0.91440 0.00405 
0.36893 0.91440 0.00363 
0.37147 0.91440 0.00320 
0.37401 0.91440 0.00278 
0.37655 0.91440 0.00235 
0.37910 0.91440 0.00192 
0.38164 0.91440 0.00149 
0.38418 0.91440 0.00105 
0.38672 0.91440 0.00062 
0.38926 0.91440 0.00018 
0.39180 0.91440 -0.00026 
0.39434 0.91440 -0.00070 
0.39688 0.91440 -0.00114 
0.39942 0.91440 -0.00159 
0.40196 0.91440 -0.00203 
0.40450 0.91440 -0.00248 
0.40704 0.91440 -0.00293 
0.40958 0.91440 -0.00338 
0.41212 0.91440 -0.00383 
0.41466 0.91440 -0.00428 
0.41719 0.91440 -0.00474 
0.41973 0.91440 -0.00519 
0.42227 0.91440 -0.00565 
0.42480 0.91440 -0.00611 
0.42734 0.91440 -0.00657 
0.42988 0.91440 -0.00704 
0.43241 0.91440 -0.00750 
0.43495 0.91440 -0.00797 
0.43748 0.91440 -0.00843 
0.44002 0.91440 -0.00890 
0.44255 0.91440 -0.00937 
0.44509 0.91440 -0.00985 
0.44762 0.91440 -0.01032 
0.45016 0.91440 -0.01080 
0.45269 0.91440 -0.01127 
0.45522 0.91440 -0.01175 
0.45776 0.91440 -0.01223 
0.46029 0.91440 -0.01272 
0.46282 0.91440 -0.01320 
0.46535 0.91440 -0.01369 
0.46789 0.91440 -0.01417 
0.47042 0.91440 -0.01466 
0.47295 0.91440 -0.01515 
0.47548 0.91440 -0.01565 
0.47801 0.91440 -0.01614 
0.48054 0.91440 -0.01664 
0.48307 0.91440 -0.01713 
0.48560 0.91440 -0.01763 
0.48813 0.91440 -0.01813 
0.49066 0.91440 -0.01864 
0.49318 0.91440 -0.01914 
0.49571 0.91440 -0.01965 
0.49824 0.91440 -0.02016 
0.50077 0.91440 -0.02067 
0.50329 0.91440 -0.02118 
0.50582 0.91440 -0.02169 
0.50835 0.91440 -0.02221 
0.51087 0.91440 -0.02273 
0.51340 0.91440 -0.02325 
0.51592 0.91440 -0.02377 
0.51845 0.91440 -0.02429 
0.52097 0.91440 -0.02482 
0.52349 0.91440 -0.02534 
0.52602 0.91440 -0.02587 
0.52854 0.91440 -0.02640 
0.53017 0.91440 -0.02675 
0.53119 0.91440 -0.02696 
0.53183 0.91440 -0.02710 
0.53222 0.91440 -0.02718 
0.53247 0.91440 -0.02724 
0.53247 0.91440 -0.02733 
0.53246 0.91440 -0.02741 
0.53245 0.91440 -0.02750 
0.53245 0.91440 -0.02759 
0.53244 0.91440 -0.02768 
0.53243 0.91440 -0.02777 
0.53243 0.91440 -0.02786 
0.53242 0.91440 -0.02795 

ZONE T="SLICE_Y_0p9144_BINS07_KS_0p5334mm_SINGLE_LAYER"
0.53242 0.91440 -0.02795 
0.53242 0.91440 -0.02804 
0.53241 0.91440 -0.02813 
0.53240 0.91440 -0.02822 
0.53240 0.91440 -0.02831 
0.53239 0.91440 -0.02840 
0.53238 0.91440 -0.02849 
0.53238 0.91440 -0.02858 
0.53213 0.91440 -0.02859 
0.53172 0.91440 -0.02862 
0.53107 0.91440 -0.02867 
0.53003 0.91440 -0.02874 
0.52837 0.91440 -0.02885 
0.52580 0.91440 -0.02903 
0.52324 0.91440 -0.02920 
0.52067 0.91440 -0.02937 
0.51810 0.91440 -0.02954 
0.51553 0.91440 -0.02971 
0.51296 0.91440 -0.02987 
0.51039 0.91440 -0.03003 
0.50782 0.91440 -0.03019 
0.50525 0.91440 -0.03035 
0.50268 0.91440 -0.03051 
0.50011 0.91440 -0.03067 
0.49754 0.91440 -0.03082 
0.49497 0.91440 -0.03097 
0.49240 0.91440 -0.03112 
0.48983 0.91440 -0.03127 
0.48726 0.91440 -0.03141 
0.48469 0.91440 -0.03156 
0.48212 0.91440 -0.03170 
0.47955 0.91440 -0.03184 
0.47698 0.91440 -0.03198 
0.47441 0.91440 -0.03212 
0.47184 0.91440 -0.03225 
0.46927 0.91440 -0.03239 
0.46670 0.91440 -0.03252 
0.46413 0.91440 -0.03265 
0.46156 0.91440 -0.03278 
0.45899 0.91440 -0.03290 
0.45642 0.91440 -0.03303 
0.45384 0.91440 -0.03315 
0.45127 0.91440 -0.03327 
0.44870 0.91440 -0.03339 
0.44613 0.91440 -0.03351 
0.44356 0.91440 -0.03363 
0.44099 0.91440 -0.03374 
0.43841 0.91440 -0.03386 
0.43584 0.91440 -0.03397 
0.43327 0.91440 -0.03408 
0.43070 0.91440 -0.03419 
0.42813 0.91440 -0.03430 
0.42555 0.91440 -0.03440 
0.42298 0.91440 -0.03450 
0.42041 0.91440 -0.03461 