TITLE = "TC_NACA0012_3932_L4_finalIceShape_V1 | NACA0012 coordinates rotated +4 degrees about X=0.13335 m"
AUXDATA NUM_LAYERS = "insert the number of total ice layers"
VARIABLES = "X_ICED" "Y_ICED" "Z_ICED"

ZONE T="SLICE_Y_0p9144_BINS01_KS_0p5334mm_SINGLE_LAYER"
0.53340476436 0.9144 -3.59910094617e-06
0.533400159503 0.9144 -0.000224458321478
0.533395554646 0.9144 -0.00044531754201
0.533401622995 0.9144 -0.000675454838307
0.532686864702 0.9144 -0.000775557701916
0.531545246562 0.9144 -0.000935582770743
0.529718099487 0.9144 -0.00118364236846
0.526789236833 0.9144 -0.00158893677606
0.522103056588 0.9144 -0.00223740782822
0.51460562868 0.9144 -0.00325287558961
0.506451203629 0.9144 -0.00433433390468
0.498286105373 0.9144 -0.00540651414399
0.490119611987 0.9144 -0.00645874310229
0.481951723472 0.9144 -0.00749102077959
0.473782439827 0.9144 -0.00850334717588
0.465601785413 0.9144 -0.0094964198559
0.457429711509 0.9144 -0.0104688436902
0.449256940041 0.9144 -0.011431291884
0.441072797802 0.9144 -0.0123744863615
0.43289793364 0.9144 -0.0133070076337
0.424711001142 0.9144 -0.0142102995492
0.41652337108 0.9144 -0.0151036158242
0.408345019094 0.9144 -0.015986258894
0.400155296338 0.9144 -0.0168496482475
0.391964178452 0.9144 -0.01769308632
0.383771665437 0.9144 -0.0185165731114
0.375578454857 0.9144 -0.0193300842624
0.367383849148 0.9144 -0.0201236441324
0.359187848309 0.9144 -0.0208972527214
0.35099045234 0.9144 -0.0216509100293
0.342792358807 0.9144 -0.0223945916968
0.33459217258 0.9144 -0.0231083464427
0.326381313147 0.9144 -0.0238128231129
0.318179034226 0.9144 -0.0244966509374
0.30997466261 0.9144 -0.0251505518403
0.301768895865 0.9144 -0.0257845014622
0.29355175835 0.9144 -0.0263991973679
0.285343201346 0.9144 -0.0269932444278
0.277132551647 0.9144 -0.0275573645662
0.268910531179 0.9144 -0.0281022309884
0.260695696092 0.9144 -0.0286064972838
0.252479465876 0.9144 -0.0290908122981
0.244261142965 0.9144 -0.029545200391
0.23603075172 0.9144 -0.0299703591271
0.227807545856 0.9144 -0.0303549177365
0.219582247299 0.9144 -0.0307095494244
0.211354158482 0.9144 -0.0310242785502
0.203133255046 0.9144 -0.0312984075493
0.194900283276 0.9144 -0.0315433071916
0.186673101759 0.9144 -0.0317276554262
0.178433154341 0.9144 -0.0318727986635
0.170520310366 0.9144 -0.031964995343
0.16297516996 0.9144 -0.0320114308461
0.155787059918 0.9144 -0.0320028270973
0.148947399729 0.9144 -0.0319598329421
0.142435540547 0.9144 -0.0318738678695
0.136222253016 0.9144 -0.0317570002143
0.130317512775 0.9144 -0.0316085324118
0.124691392903 0.9144 -0.0314305571561
0.119333917761 0.9144 -0.031223772012
0.114235809271 0.9144 -0.0309988501848
0.109377116154 0.9144 -0.0307571868038
0.104757140843 0.9144 -0.0304888062286
0.100346653984 0.9144 -0.030205776794
0.0961563287798 0.9144 -0.0299173765756
0.0921754920265 0.9144 -0.0296143274978
0.0883742168023 0.9144 -0.0292987222546
0.0845202731166 0.9144 -0.0289467022732
0.0806749099419 0.9144 -0.028574033446
0.0768281516377 0.9144 -0.0281814133377
0.0729885787151 0.9144 -0.0277481931028
0.0691469130983 0.9144 -0.0272850459463
0.0653131304278 0.9144 -0.0267912743036
0.0614570940478 0.9144 -0.0264093274007
0.0575980576748 0.9144 -0.0261278344675
0.0537390213017 0.9144 -0.0258463415343
0.0498792873639 0.9144 -0.0255548729605
0.0460081826562 0.9144 -0.0252441506706
0.0421370779484 0.9144 -0.0249334283806
0.0382645781112 0.9144 -0.0246027548096
0.0343913807092 0.9144 -0.0242621055981
0.0304931393389 0.9144 -0.0239933785644
0.0270772165363 0.9144 -0.0237410466258
0.0235325130586 0.9144 -0.0248008943767
0.0182672578333 0.9144 -0.0253394920113
0.0130499341358 0.9144 -0.0238397808939
0.00868605203674 0.9144 -0.0219295366621
0.00468652705508 0.9144 -0.0193522512838
0.000967646774762 0.9144 -0.0163443401381
-0.00195778712213 0.9144 -0.0135014830338
-0.00409828678441 0.9144 -0.0112753740527
-0.00602022965456 0.9144 -0.00916429953869
-0.00833463731822 0.9144 -0.00602810484346
-0.00985119882828 0.9144 -0.00154296926176
-0.00985376076277 0.9144 0.004371258789
-0.00596093994807 0.9144 0.0104877076039
-0.000389644946891 0.9144 0.0122406114831
0.00294723865854 0.9144 0.0115416781502
0.00584679894552 0.9144 0.0109324572197
0.00945833191361 0.9144 0.011896733954
0.0128502640662 0.9144 0.0137077547357
0.0163579966129 0.9144 0.0152963114333
0.0199381391678 0.9144 0.0167094919903
0.0235686477558 0.9144 0.0179758281986
0.0272367564774 0.9144 0.0191345250556
0.0309424653326 0.9144 0.0201855825614
0.0346644279109 0.9144 0.0211475568673
0.0384112247235 0.9144 0.0220410968192
0.0421728801297 0.9144 0.0228655048523
0.0459387209243 0.9144 0.0236300590424
0.0497280008236 0.9144 0.0243461301595
0.0535107929061 0.9144 0.0250116255093
0.0573170240933 0.9144 0.025628637786
0.0611167674636 0.9144 0.0261950742955
0.0649285791687 0.9144 0.0267322814483
0.0687431811328 0.9144 0.027229586039
0.0725698514315 0.9144 0.027697661273
0.0763893363487 0.9144 0.0281251363802
0.0802201920359 0.9144 0.0285333577712
0.0840431647768 0.9144 0.0289109546759
0.0878789034171 0.9144 0.0292493465833
0.0915756806552 0.9144 0.0295679969439
0.0954541121165 0.9144 0.0298692765483
0.099534149082 0.9144 0.0301545805259
0.103815093987 0.9144 0.0304338845173
0.108317595677 0.9144 0.0306986080113
0.113042351718 0.9144 0.0309387753676
0.11800791826 0.9144 0.0311757329966
0.123226363638 0.9144 0.0313802515415
0.128696990288 0.9144 0.0315623066428
0.134450422695 0.9144 0.0317140153543
0.140485963295 0.9144 0.0318453533164
0.14683493414 0.9144 0.0319384619423
0.153487359588 0.9144 0.0319926436674
0.160483142201 0.9144 0.0320106887505
0.167822979545 0.9144 0.0319826215512
0.175536798541 0.9144 0.0319105347636
0.183625296753 0.9144 0.0317844527473
0.191937444444 0.9144 0.0316138633122
0.200243104319 0.9144 0.0313926981099
0.208552252017 0.9144 0.031121654705
0.216853516769 0.9144 0.0308199868139
0.22515757178 0.9144 0.0304784163608
0.233454441409 0.9144 0.0300962457809
0.241754101298 0.9144 0.0296741726391
0.250045180675 0.9144 0.0292314506515
0.258349025952 0.9144 0.0287495236666
0.266634315077 0.9144 0.0282462502712
0.274932370102 0.9144 0.0277037718786
0.283221844616 0.9144 0.0271406446402
0.291503436183 0.9144 0.0265468929156
0.299796398521 0.9144 0.0259338874747
0.308080780347 0.9144 0.025300233188
0.316357279227 0.9144 0.0246359544151
0.324644451312 0.9144 0.0239623975665
0.332923740451 0.9144 0.0232582162316
0.34120442472 0.9144 0.0225340836157
0.349476528477 0.9144 0.0217893021541
0.357749329799 0.9144 0.0210345450519
0.366024223816 0.9144 0.0202498610283
0.374289839757 0.9144 0.0194545037994
0.382566826467 0.9144 0.0186398928542
0.390825257026 0.9144 0.0178039354986
0.399094360791 0.9144 0.0169587000672
0.407354884044 0.9144 0.01609281579
0.415616802427 0.9144 0.0152069802319
0.423880115939 0.9144 0.0143011933927
0.432144127016 0.9144 0.013385430913
0.440399557582 0.9144 0.0124490195876
0.448645710072 0.9144 0.011501935057
0.456903233332 0.9144 0.0105355968101
0.465152176082 0.9144 0.00954860971744
0.47340251396 0.9144 0.00854167134378
0.481643573763 0.9144 0.00752405976488
0.489886028695 0.9144 0.00648649690498
0.498129878757 0.9144 0.00542898276407
0.506375123949 0.9144 0.00435151734215
0.514611788629 0.9144 0.0032534030745
0.52210118757 0.9144 0.0022333523428
0.526787572903 0.9144 0.00158868768749
0.529712386892 0.9144 0.00119174546645
0.531545182848 0.9144 0.000928954704327
0.532689171778 0.9144 0.000768364147596
0.533397930084 0.9144 0.000667559071678
0.533403300868 0.9144 0.000447397415883
0.533398696011 0.9144 0.000226538195351
0.53340476436 0.9144 -3.59910094617e-06

ZONE T="SLICE_Y_0p9144_BINS03_KS_0p5334mm_SINGLE_LAYER"
0.53340476436 0.9144 -3.59910094617e-06
0.533400159503 0.9144 -0.000224458321478
0.533395554646 0.9144 -0.00044531754201
0.533401622995 0.9144 -0.000675454838307
0.532686864702 0.9144 -0.000775557701916
0.531545246562 0.9144 -0.000935582770743
0.529718099487 0.9144 -0.00118364236846
0.526789236833 0.9144 -0.00158893677606
0.522103056588 0.9144 -0.00223740782822
0.51460562868 0.9144 -0.00325287558961
0.506451203629 0.9144 -0.00433433390468
0.498286105373 0.9144 -0.00540651414399
0.490119611987 0.9144 -0.00645874310229
0.481951723472 0.9144 -0.00749102077959
0.473782439827 0.9144 -0.00850334717588
0.465601785413 0.9144 -0.0094964198559
0.457429711509 0.9144 -0.0104688436902
0.449256940041 0.9144 -0.011431291884
0.441072797802 0.9144 -0.0123744863615
0.43289793364 0.9144 -0.0133070076337
0.424711001142 0.9144 -0.0142102995492
0.41652337108 0.9144 -0.0151036158242
0.408345019094 0.9144 -0.015986258894
0.400155296338 0.9144 -0.0168496482475
0.391964178452 0.9144 -0.01769308632
0.383771665437 0.9144 -0.0185165731114
0.375578454857 0.9144 -0.0193300842624
0.367383849148 0.9144 -0.0201236441324
0.359187848309 0.9144 -0.0208972527214
0.35099045234 0.9144 -0.0216509100293
0.342792358807 0.9144 -0.0223945916968
0.33459217258 0.9144 -0.0231083464427
0.326381313147 0.9144 -0.0238128231129
0.318179034226 0.9144 -0.0244966509374
0.30997466261 0.9144 -0.0251505518403
0.301768895865 0.9144 -0.0257845014622
0.29355175835 0.9144 -0.0263991973679
0.285343201346 0.9144 -0.0269932444278
0.277132551647 0.9144 -0.0275573645662
0.268910531179 0.9144 -0.0281022309884
0.260695696092 0.9144 -0.0286064972838
0.252479465876 0.9144 -0.0290908122981
0.244261142965 0.9144 -0.029545200391
0.23603075172 0.9144 -0.0299703591271
0.227807545856 0.9144 -0.0303549177365
0.219582247299 0.9144 -0.0307095494244
0.211354158482 0.9144 -0.0310242785502
0.203133255046 0.9144 -0.0312984075493
0.194900283276 0.9144 -0.0315433071916
0.186673101759 0.9144 -0.0317276554262
0.178433154341 0.9144 -0.0318727986635
0.170520310366 0.9144 -0.031964995343
0.16297516996 0.9144 -0.0320114308461
0.155787059918 0.9144 -0.0320028270973
0.148947399729 0.9144 -0.0319598329421
0.142426262472 0.9144 -0.0318845410748
0.136225043275 0.9144 -0.0317969027764
0.130313117652 0.9144 -0.0316890351006
0.124690485604 0.9144 -0.0315609380474
0.119326522645 0.9144 -0.0314047286706
0.114221926339 0.9144 -0.0312303826105
0.10936602348 0.9144 -0.0310286217916
0.104739560353 0.9144 -0.0308108169837
0.100332561317 0.9144 -0.0305776657515
0.0961357482963 0.9144 -0.0303398413004
0.092137750521 0.9144 -0.030078089914
0.0883299874799 0.9144 -0.0298130604381
0.0844702535421 0.9144 -0.0295215918644
0.0806184025506 0.9144 -0.0291994988045
0.0767551807891 0.9144 -0.0288581520283
0.0728998419739 0.9144 -0.0284861807658
0.069052386105 0.9144 -0.0280835850171
0.0652035351067 0.9144 -0.0276610379874
0.0613518938493 0.9144 -0.0271985883957
0.0575081355383 0.9144 -0.0267055143177
0.0536685626157 0.9144 -0.0262722940827
0.0498139213652 0.9144 -0.0259102984608
0.0459479093448 0.9144 -0.0255290491225
0.0420897802707 0.9144 -0.0251171752981
0.0382110023508 0.9144 -0.0246967209626
0.0343408049419 0.9144 -0.0242556177813
0.0304599343278 0.9144 -0.0238052365243
0.0265839466669 0.9144 -0.0234246847508
0.0231738141165 0.9144 -0.0231118014044
0.0193622805078 0.9144 -0.0239396972612
0.0138772147328 0.9144 -0.0237719073802
0.00892728200663 0.9144 -0.0216520333258
0.00481342012266 0.9144 -0.0193032803802
0.00104187138088 0.9144 -0.0162589544961
-0.00188216738653 0.9144 -0.0134360486729
-0.00403264268932 0.9144 -0.0112106372566
-0.0059353318432 0.9144 -0.00908819197254
-0.0082938274573 0.9144 -0.00589493369324
-0.00961366641625 0.9144 -0.00135594425478
-0.0094988914553 0.9144 0.00488727019839
-0.00489584884269 0.9144 0.0104519174205
-0.000509703739077 0.9144 0.0115204824069
0.00221155342392 0.9144 0.0117408445017
0.00540843160374 0.9144 0.0117538792024
0.00899813033079 0.9144 0.0128870442605
0.0126223608361 0.9144 0.0142431612334
0.0162848890398 0.9144 0.0154816632144
0.019937441603 0.9144 0.0167194676308
0.0235686477558 0.9144 0.0179758281986
0.0272367564774 0.9144 0.0191345250556
0.0309424653326 0.9144 0.0201855825614
0.0346644279109 0.9144 0.0211475568673
0.0384112247235 0.9144 0.0220410968192
0.0421728801297 0.9144 0.0228655048523
0.0459387209243 0.9144 0.0236300590424
0.0497280008236 0.9144 0.0243461301595
0.0535107929061 0.9144 0.0250116255093
0.0573170240933 0.9144 0.025628637786
0.0611167674636 0.9144 0.0261950742955
0.0649285791687 0.9144 0.0267322814483
0.0687431811328 0.9144 0.027229586039
0.0725698514315 0.9144 0.027697661273
0.0763893363487 0.9144 0.0281251363802
0.0802201920359 0.9144 0.0285333577712
0.0840431647768 0.9144 0.0289109546759
0.0878789034171 0.9144 0.0292493465833
0.0915756806552 0.9144 0.0295679969439
0.0954541121165 0.9144 0.0298692765483
0.099534149082 0.9144 0.0301545805259
0.103815093987 0.9144 0.0304338845173
0.108317595677 0.9144 0.0306986080113
0.113042351718 0.9144 0.0309387753676
0.11800791826 0.9144 0.0311757329966
0.123226363638 0.9144 0.0313802515415
0.128696990288 0.9144 0.0315623066428
0.134450422695 0.9144 0.0317140153543
0.140485963295 0.9144 0.0318453533164
0.14683493414 0.9144 0.0319384619423
0.153487359588 0.9144 0.0319926436674
0.160483142201 0.9144 0.0320106887505
0.167822979545 0.9144 0.0319826215512
0.175536798541 0.9144 0.0319105347636
0.183625296753 0.9144 0.0317844527473
0.191937444444 0.9144 0.0316138633122
0.200243104319 0.9144 0.0313926981099
0.208552252017 0.9144 0.031121654705
0.216853516769 0.9144 0.0308199868139
0.22515757178 0.9144 0.0304784163608
0.233454441409 0.9144 0.0300962457809
0.241754101298 0.9144 0.0296741726391
0.250045180675 0.9144 0.0292314506515
0.258349025952 0.9144 0.0287495236666
0.266634315077 0.9144 0.0282462502712
0.274932370102 0.9144 0.0277037718786
0.283221844616 0.9144 0.0271406446402
0.291503436183 0.9144 0.0265468929156
0.299796398521 0.9144 0.0259338874747
0.308080780347 0.9144 0.025300233188
0.316357279227 0.9144 0.0246359544151
0.324644451312 0.9144 0.0239623975665
0.332923740451 0.9144 0.0232582162316
0.34120442472 0.9144 0.0225340836157
0.349476528477 0.9144 0.0217893021541
0.357749329799 0.9144 0.0210345450519
0.366024223816 0.9144 0.0202498610283
0.374289839757 0.9144 0.0194545037994
0.382566826467 0.9144 0.0186398928542
0.390825257026 0.9144 0.0178039354986
0.399094360791 0.9144 0.0169587000672
0.407354884044 0.9144 0.01609281579
0.415616802427 0.9144 0.0152069802319
0.423880115939 0.9144 0.0143011933927
0.432144127016 0.9144 0.013385430913
0.440399557582 0.9144 0.0124490195876
0.448645710072 0.9144 0.011501935057
0.456903233332 0.9144 0.0105355968101
0.465152176082 0.9144 0.00954860971744
0.47340251396 0.9144 0.00854167134378
0.481643573763 0.9144 0.00752405976488
0.489886028695 0.9144 0.00648649690498
0.498129878757 0.9144 0.00542898276407
0.506375123949 0.9144 0.00435151734215
0.514611788629 0.9144 0.0032534030745
0.52210118757 0.9144 0.0022333523428
0.526787572903 0.9144 0.00158868768749
0.529712386892 0.9144 0.00119174546645
0.531545182848 0.9144 0.000928954704327
0.532689171778 0.9144 0.000768364147596
0.533397930084 0.9144 0.000667559071678
0.533403300868 0.9144 0.000447397415883
0.533398696011 0.9144 0.000226538195351
0.53340476436 0.9144 -3.59910094617e-06

ZONE T="SLICE_Y_0p9144_BINS07_KS_0p5334mm_SINGLE_LAYER"
0.53340476436 0.9144 -3.59910094617e-06
0.533400159503 0.9144 -0.000224458321478
0.533395554646 0.9144 -0.00044531754201
0.533401622995 0.9144 -0.000675454838307
0.532686864702 0.9144 -0.000775557701916
0.531545246562 0.9144 -0.000935582770743
0.529718099487 0.9144 -0.00118364236846
0.526789236833 0.9144 -0.00158893677606
0.522103056588 0.9144 -0.00223740782822
0.51460562868 0.9144 -0.00325287558961
0.506451203629 0.9144 -0.00433433390468
0.498286105373 0.9144 -0.00540651414399
0.490119611987 0.9144 -0.00645874310229
0.481951723472 0.9144 -0.00749102077959
0.473782439827 0.9144 -0.00850334717588
0.465601785413 0.9144 -0.0094964198559
0.457429711509 0.9144 -0.0104688436902
0.449256940041 0.9144 -0.011431291884
0.441072797802 0.9144 -0.0123744863615
0.43289793364 0.9144 -0.0133070076337
0.424711001142 0.9144 -0.0142102995492
0.41652337108 0.9144 -0.0151036158242
0.408345019094 0.9144 -0.015986258894
0.400155296338 0.9144 -0.0168496482475
0.391964178452 0.9144 -0.01769308632
0.383771665437 0.9144 -0.0185165731114
0.375578454857 0.9144 -0.0193300842624
0.367383849148 0.9144 -0.0201236441324
0.359187848309 0.9144 -0.0208972527214
0.35099045234 0.9144 -0.0216509100293
0.342792358807 0.9144 -0.0223945916968
0.33459217258 0.9144 -0.0231083464427
0.326381313147 0.9144 -0.0238128231129
0.318179034226 0.9144 -0.0244966509374
0.30997466261 0.9144 -0.0251505518403
0.301768895865 0.9144 -0.0257845014622
0.29355175835 0.9144 -0.0263991973679
0.285343201346 0.9144 -0.0269932444278
0.277132551647 0.9144 -0.0275573645662
0.268910531179 0.9144 -0.0281022309884
0.260695696092 0.9144 -0.0286064972838
0.252479465876 0.9144 -0.0290908122981
0.244261142965 0.9144 -0.029545200391
0.23603075172 0.9144 -0.0299703591271
0.227807545856 0.9144 -0.0303549177365
0.219582247299 0.9144 -0.0307095494244
0.211354158482 0.9144 -0.0310242785502
0.203133255046 0.9144 -0.0312984075493
0.194900283276 0.9144 -0.0315433071916
0.186673101759 0.9144 -0.0317276554262
0.178433154341 0.9144 -0.0318727986635
0.170520310366 0.9144 -0.031964995343
0.16297516996 0.9144 -0.0320114308461
0.155787059918 0.9144 -0.0320028270973
0.148947399729 0.9144 -0.0319598329421
0.142426262472 0.9144 -0.0318845410748
0.136225740839 0.9144 -0.0318068784169
0.130313815217 0.9144 -0.0316990107411
0.124691183169 0.9144 -0.0315709136879
0.11932722021 0.9144 -0.0314147043111
0.114222623903 0.9144 -0.0312403582511
0.109366721045 0.9144 -0.0310385974321
0.104730282277 0.9144 -0.0308214901889
0.100323283241 0.9144 -0.0305883389568
0.0961357482963 0.9144 -0.0303398413004
0.0921384480857 0.9144 -0.0300880655545
0.0883320801741 0.9144 -0.0298429873597
0.0844751364953 0.9144 -0.029591421348
0.0806068220464 0.9144 -0.02932060162
0.0767463905439 0.9144 -0.0290191574058
0.0728845639119 0.9144 -0.0286977619106
0.0690313177909 0.9144 -0.0283557175696
0.0651660033352 0.9144 -0.0279844438719
0.0613085718258 0.9144 -0.0275825456879
0.0574490476222 0.9144 -0.0271507205824
0.0535981039296 0.9144 -0.0266982466312
0.0497571358776 0.9144 -0.0262450751153
0.0458969141092 0.9144 -0.0258032743693
0.0420339020819 0.9144 -0.0253215710613
0.0381595192846 0.9144 -0.024820614037
0.0342930194336 0.9144 -0.0242890325265
0.0304237293237 0.9144 -0.023717548454
0.0265372781917 0.9144 -0.023187362073
0.0230739893492 0.9144 -0.022687731816
0.0194487148206 0.9144 -0.0233121392085
0.014328630718 0.9144 -0.023489730825
0.00914953635664 0.9144 -0.0216765894636
0.00486050806622 0.9144 -0.0192598899945
0.00105324215086 0.9144 -0.0162782082124
-0.00188146982179 0.9144 -0.0134460243134
-0.00403264268932 0.9144 -0.0112106372566
-0.00593602940794 0.9144 -0.00907821633203
-0.00828664207574 0.9144 -0.00585433356649
-0.00957146142585 0.9144 -0.00124272438557
-0.00932400314524 0.9144 0.00511001237896
-0.00452186719093 0.9144 0.0104078978323
-0.000630528458202 0.9144 0.011241374207
0.00177353254072 0.9144 0.0118405325445
0.00516615761052 0.9144 0.0122080854465
0.00889600313517 0.9144 0.0132006842387
0.0126188730124 0.9144 0.0142930394359
0.0162721231404 0.9144 0.0155208682117
0.0199260708331 0.9144 0.016738721347
0.0235686477558 0.9144 0.0179758281986
0.0272367564774 0.9144 0.0191345250556
0.0309424653326 0.9144 0.0201855825614
0.0346644279109 0.9144 0.0211475568673
0.0384112247235 0.9144 0.0220410968192
0.0421728801297 0.9144 0.0228655048523
0.0459387209243 0.9144 0.0236300590424
0.0497280008236 0.9144 0.0243461301595
0.0535107929061 0.9144 0.0250116255093
0.0573170240933 0.9144 0.025628637786
0.0611167674636 0.9144 0.0261950742955
0.0649285791687 0.9144 0.0267322814483
0.0687431811328 0.9144 0.027229586039
0.0725698514315 0.9144 0.027697661273
0.0763893363487 0.9144 0.0281251363802
0.0802201920359 0.9144 0.0285333577712
0.0840431647768 0.9144 0.0289109546759
0.0878789034171 0.9144 0.0292493465833
0.0915756806552 0.9144 0.0295679969439
0.0954541121165 0.9144 0.0298692765483
0.099534149082 0.9144 0.0301545805259
0.103815093987 0.9144 0.0304338845173
0.108317595677 0.9144 0.0306986080113
0.113042351718 0.9144 0.0309387753676
0.11800791826 0.9144 0.0311757329966
0.123226363638 0.9144 0.0313802515415
0.128696990288 0.9144 0.0315623066428
0.134450422695 0.9144 0.0317140153543
0.140485963295 0.9144 0.0318453533164
0.14683493414 0.9144 0.0319384619423
0.153487359588 0.9144 0.0319926436674
0.160483142201 0.9144 0.0320106887505
0.167822979545 0.9144 0.0319826215512
0.175536798541 0.9144 0.0319105347636
0.183625296753 0.9144 0.0317844527473
0.191937444444 0.9144 0.0316138633122
0.200243104319 0.9144 0.0313926981099
0.208552252017 0.9144 0.031121654705
0.216853516769 0.9144 0.0308199868139
0.22515757178 0.9144 0.0304784163608
0.233454441409 0.9144 0.0300962457809
0.241754101298 0.9144 0.0296741726391
0.250045180675 0.9144 0.0292314506515
0.258349025952 0.9144 0.0287495236666
0.266634315077 0.9144 0.0282462502712
0.274932370102 0.9144 0.0277037718786
0.283221844616 0.9144 0.0271406446402
0.291503436183 0.9144 0.0265468929156
0.299796398521 0.9144 0.0259338874747
0.308080780347 0.9144 0.025300233188
0.316357279227 0.9144 0.0246359544151
0.324644451312 0.9144 0.0239623975665
0.332923740451 0.9144 0.0232582162316
0.34120442472 0.9144 0.0225340836157
0.349476528477 0.9144 0.0217893021541
0.357749329799 0.9144 0.0210345450519
0.366024223816 0.9144 0.0202498610283
0.374289839757 0.9144 0.0194545037994
0.382566826467 0.9144 0.0186398928542
0.390825257026 0.9144 0.0178039354986
0.399094360791 0.9144 0.0169587000672
0.407354884044 0.9144 0.01609281579
0.415616802427 0.9144 0.0152069802319
0.423880115939 0.9144 0.0143011933927
0.432144127016 0.9144 0.013385430913
0.440399557582 0.9144 0.0124490195876
0.448645710072 0.9144 0.011501935057
0.456903233332 0.9144 0.0105355968101
0.465152176082 0.9144 0.00954860971744
0.47340251396 0.9144 0.00854167134378
0.481643573763 0.9144 0.00752405976488
0.489886028695 0.9144 0.00648649690498
0.498129878757 0.9144 0.00542898276407
0.506375123949 0.9144 0.00435151734215
0.514611788629 0.9144 0.0032534030745
0.52210118757 0.9144 0.0022333523428
0.526787572903 0.9144 0.00158868768749
0.529712386892 0.9144 0.00119174546645
0.531545182848 0.9144 0.000928954704327
0.532689171778 0.9144 0.000768364147596
0.533397930084 0.9144 0.000667559071678
0.533403300868 0.9144 0.000447397415883
0.533398696011 0.9144 0.000226538195351
0.53340476436 0.9144 -3.59910094617e-06

ZONE T="SLICE_Y_0p9144_BINS15_KS_0p5334mm_SINGLE_LAYER"
0.53340476436 0.9144 -3.59910094617e-06
0.533400159503 0.9144 -0.000224458321478
0.533395554646 0.9144 -0.00044531754201
0.533401622995 0.9144 -0.000675454838307
0.532686864702 0.9144 -0.000775557701916
0.531545246562 0.9144 -0.000935582770743
0.529718099487 0.9144 -0.00118364236846
0.526789236833 0.9144 -0.00158893677606
0.522103056588 0.9144 -0.00223740782822
0.51460562868 0.9144 -0.00325287558961
0.506451203629 0.9144 -0.00433433390468
0.498286105373 0.9144 -0.00540651414399
0.490119611987 0.9144 -0.00645874310229
0.481951723472 0.9144 -0.00749102077959
0.473782439827 0.9144 -0.00850334717588
0.465601785413 0.9144 -0.0094964198559
0.457429711509 0.9144 -0.0104688436902
0.449256940041 0.9144 -0.011431291884
0.441072797802 0.9144 -0.0123744863615
0.43289793364 0.9144 -0.0133070076337
0.424711001142 0.9144 -0.0142102995492
0.41652337108 0.9144 -0.0151036158242
0.408345019094 0.9144 -0.015986258894
0.400155296338 0.9144 -0.0168496482475
0.391964178452 0.9144 -0.01769308632
0.383771665437 0.9144 -0.0185165731114
0.375578454857 0.9144 -0.0193300842624
0.367383849148 0.9144 -0.0201236441324
0.359187848309 0.9144 -0.0208972527214
0.35099045234 0.9144 -0.0216509100293
0.342792358807 0.9144 -0.0223945916968
0.33459217258 0.9144 -0.0231083464427
0.326381313147 0.9144 -0.0238128231129
0.318179034226 0.9144 -0.0244966509374
0.30997466261 0.9144 -0.0251505518403
0.301768895865 0.9144 -0.0257845014622
0.29355175835 0.9144 -0.0263991973679
0.285343201346 0.9144 -0.0269932444278
0.277132551647 0.9144 -0.0275573645662
0.268910531179 0.9144 -0.0281022309884
0.260695696092 0.9144 -0.0286064972838
0.252479465876 0.9144 -0.0290908122981
0.244261142965 0.9144 -0.029545200391
0.23603075172 0.9144 -0.0299703591271
0.227807545856 0.9144 -0.0303549177365
0.219582247299 0.9144 -0.0307095494244
0.211354158482 0.9144 -0.0310242785502
0.203133255046 0.9144 -0.0312984075493
0.194900283276 0.9144 -0.0315433071916
0.186673101759 0.9144 -0.0317276554262
0.178433154341 0.9144 -0.0318727986635
0.170520310366 0.9144 -0.031964995343
0.16297516996 0.9144 -0.0320114308461
0.155787059918 0.9144 -0.0320028270973
0.148948097294 0.9144 -0.0319698085826
0.142427657601 0.9144 -0.0319044923558
0.136226438404 0.9144 -0.0318168540574
0.130314512782 0.9144 -0.0317089863816
0.124691183169 0.9144 -0.0315709136879
0.119326522645 0.9144 -0.0314047286706
0.114221926339 0.9144 -0.0312303826105
0.109366721045 0.9144 -0.0310385974321
0.104730282277 0.9144 -0.0308214901889
0.100323980806 0.9144 -0.0305983145973
0.09612786535 0.9144 -0.0303704657867
0.0921312627041 0.9144 -0.0301286656813
0.088334870433 0.9144 -0.0298828899217
0.0844665559842 0.9144 -0.0296120701937
0.0806068220464 0.9144 -0.02932060162
0.0767463905439 0.9144 -0.0290191574058
0.0728838663472 0.9144 -0.0286877862701
0.0690299226615 0.9144 -0.0283357662886
0.065175281411 0.9144 -0.0279737706667
0.0613085718258 0.9144 -0.0275825456879
0.0574504427517 0.9144 -0.0271706718634
0.0536001966238 0.9144 -0.0267281735527
0.0497492529313 0.9144 -0.0262756996015
0.0458876360334 0.9144 -0.0258139475745
0.0420232288767 0.9144 -0.0253122929855
0.0381567290257 0.9144 -0.024780711475
0.0342995072504 0.9144 -0.0242384567593
0.0304415879105 0.9144 -0.023686226403
0.0265579270374 0.9144 -0.023195942584
0.0230468526867 0.9144 -0.0227297270722
0.0193953487944 0.9144 -0.0232657488297
0.0143736259673 0.9144 -0.0234164135178
0.00919013648339 0.9144 -0.0216837748452
0.00486978614199 0.9144 -0.0192492167893
0.00106252022663 0.9144 -0.0162675350072
-0.00188216738653 0.9144 -0.0134360486729
-0.00403264268932 0.9144 -0.0112106372566
-0.00593602940794 0.9144 -0.00907821633203
-0.00827736399998 0.9144 -0.00584366036125
-0.00956288091483 0.9144 -0.00122207553983
-0.00928410058323 0.9144 0.00511280263791
-0.00452047206145 0.9144 0.0103879465513
-0.000629830893465 0.9144 0.0112313985665
0.0017749276702 0.9144 0.0118205812635
0.00515548440528 0.9144 0.0122173635223
0.00888393480046 0.9144 0.0132299135955
0.0125954339078 0.9144 0.0143415225089
0.0162714255756 0.9144 0.0155308438522
0.0199253732683 0.9144 0.0167486969875
0.0235686477558 0.9144 0.0179758281986
0.0272367564774 0.9144 0.0191345250556
0.0309424653326 0.9144 0.0201855825614
0.0346644279109 0.9144 0.0211475568673
0.0384112247235 0.9144 0.0220410968192
0.0421728801297 0.9144 0.0228655048523
0.0459387209243 0.9144 0.0236300590424
0.0497280008236 0.9144 0.0243461301595
0.0535107929061 0.9144 0.0250116255093
0.0573170240933 0.9144 0.025628637786
0.0611167674636 0.9144 0.0261950742955
0.0649285791687 0.9144 0.0267322814483
0.0687431811328 0.9144 0.027229586039
0.0725698514315 0.9144 0.027697661273
0.0763893363487 0.9144 0.0281251363802
0.0802201920359 0.9144 0.0285333577712
0.0840431647768 0.9144 0.0289109546759
0.0878789034171 0.9144 0.0292493465833
0.0915756806552 0.9144 0.0295679969439
0.0954541121165 0.9144 0.0298692765483
0.099534149082 0.9144 0.0301545805259
0.103815093987 0.9144 0.0304338845173
0.108317595677 0.9144 0.0306986080113
0.113042351718 0.9144 0.0309387753676
0.11800791826 0.9144 0.0311757329966
0.123226363638 0.9144 0.0313802515415
0.128696990288 0.9144 0.0315623066428
0.134450422695 0.9144 0.0317140153543
0.140485963295 0.9144 0.0318453533164
0.14683493414 0.9144 0.0319384619423
0.153487359588 0.9144 0.0319926436674
0.160483142201 0.9144 0.0320106887505
0.167822979545 0.9144 0.0319826215512
0.175536798541 0.9144 0.0319105347636
0.183625296753 0.9144 0.0317844527473
0.191937444444 0.9144 0.0316138633122
0.200243104319 0.9144 0.0313926981099
0.208552252017 0.9144 0.031121654705
0.216853516769 0.9144 0.0308199868139
0.22515757178 0.9144 0.0304784163608
0.233454441409 0.9144 0.0300962457809
0.241754101298 0.9144 0.0296741726391
0.250045180675 0.9144 0.0292314506515
0.258349025952 0.9144 0.0287495236666
0.266634315077 0.9144 0.0282462502712
0.274932370102 0.9144 0.0277037718786
0.283221844616 0.9144 0.0271406446402
0.291503436183 0.9144 0.0265468929156
0.299796398521 0.9144 0.0259338874747
0.308080780347 0.9144 0.025300233188
0.316357279227 0.9144 0.0246359544151
0.324644451312 0.9144 0.0239623975665
0.332923740451 0.9144 0.0232582162316
0.34120442472 0.9144 0.0225340836157
0.349476528477 0.9144 0.0217893021541
0.357749329799 0.9144 0.0210345450519
0.366024223816 0.9144 0.0202498610283
0.374289839757 0.9144 0.0194545037994
0.382566826467 0.9144 0.0186398928542
0.390825257026 0.9144 0.0178039354986
0.399094360791 0.9144 0.0169587000672
0.407354884044 0.9144 0.01609281579
0.415616802427 0.9144 0.0152069802319
0.423880115939 0.9144 0.0143011933927
0.432144127016 0.9144 0.013385430913
0.440399557582 0.9144 0.0124490195876
0.448645710072 0.9144 0.011501935057
0.456903233332 0.9144 0.0105355968101
0.465152176082 0.9144 0.00954860971744
0.47340251396 0.9144 0.00854167134378
0.481643573763 0.9144 0.00752405976488
0.489886028695 0.9144 0.00648649690498
0.498129878757 0.9144 0.00542898276407
0.506375123949 0.9144 0.00435151734215
0.514611788629 0.9144 0.0032534030745
0.52210118757 0.9144 0.0022333523428
0.526787572903 0.9144 0.00158868768749
0.529712386892 0.9144 0.00119174546645
0.531545182848 0.9144 0.000928954704327
0.532689171778 0.9144 0.000768364147596
0.533397930084 0.9144 0.000667559071678
0.533403300868 0.9144 0.000447397415883
0.533398696011 0.9144 0.000226538195351
0.53340476436 0.9144 -3.59910094617e-06
