#++++++++++++++++++++++++++++++++++++++++++++++++++++++++++++++++++++++++++++++++++++++++++++++++++++++++++++++++++++
#
#   IPW-3 Ice Shape DATA SUBMITTAL FORM for Test Case NACA0012_AE3932, May 18th 2026
#
#       NOMENCLATURE:
#             X_ICED [m]:  X-coordinate of the iced surface
#             Y_ICED [m]:  Y-coordinate of the iced surface
#             Z_ICED [m]:  Z-coordinate of the iced surface
#
#                XXmm:  Roughness height used for the case, in mm.
#                       In the zone name, use the format KS_XXmm.
#                       For example, if k_s = 1.5 mm, use KS_1p5mm. 
#                       For Variable roughness, use KS_VAR
#
#    FLOW CONDITIONS:
#                                   AOA: 4.0 deg
#                           Mach Number: 0.3151 [-]
#       Mean aerodynamic chord (M.A.C.): 0.5334 [m]
#                       Reynolds Number: 3.9795 million (based on MAC)
#                       Freestream Temp: 267.55 [K]
#                        Reference area: 0.97548 [m2]
#               Moment Reference Center: 0.13335, 0, 0 [m] (X, Y, Z)
#
#    ICING CONDITIONS:
#                           Icing Time: 420 [s]
#                                  LWC: 0.55 [g/m3]
#                                  MVD: 20 [μm]
#
#              NOTES: 1. Please use at least 5 decimal places in the numerical values
#                     2. If data are NOT provided, please fill data fields with a numerical value of "-999" 
#
#++++++++++++++++++++++++++++++++++++++++++++++++++++++++++++++++++++++++++++++++++++++++++++++++++++++++++++++++++++

AUXDATA NUM_LAYERS  = "insert the number of total ice layers"
                                              
VARIABLES = "X_ICED" "Y_ICED" "Z_ICED"

ZONE T="SLICE_Y_0p9144_BINS01_KS_0p5mm_SINGLE_LAYER"
0.53243 0.91440 -0.02791 
0.53241 0.91440 -0.02813 
0.53239 0.91440 -0.02835 
0.53238 0.91440 -0.02858 
0.53166 0.91440 -0.02863 
0.53051 0.91440 -0.02871 
0.52867 0.91440 -0.02883 
0.52572 0.91440 -0.02903 
0.52100 0.91440 -0.02935 
0.51345 0.91440 -0.02984 
0.50524 0.91440 -0.03035 
0.49702 0.91440 -0.03085 
0.48880 0.91440 -0.03133 
0.48058 0.91440 -0.03179 
0.47236 0.91440 -0.03223 
0.46413 0.91440 -0.03265 
0.45591 0.91440 -0.03305 
0.44769 0.91440 -0.03344 
0.43946 0.91440 -0.03381 
0.43124 0.91440 -0.03417 
0.42301 0.91440 -0.03450 
0.41478 0.91440 -0.03482 
0.40656 0.91440 -0.03513 
0.39833 0.91440 -0.03542 
0.39010 0.91440 -0.03569 
0.38187 0.91440 -0.03594 
0.37364 0.91440 -0.03618 
0.36541 0.91440 -0.03640 
0.35718 0.91440 -0.03660 
0.34895 0.91440 -0.03678 
0.34072 0.91440 -0.03695 
0.33249 0.91440 -0.03709 
0.32425 0.91440 -0.03722 
0.31602 0.91440 -0.03733 
0.30779 0.91440 -0.03741 
0.29956 0.91440 -0.03747 
0.29132 0.91440 -0.03751 
0.28309 0.91440 -0.03753 
0.27486 0.91440 -0.03752 
0.26662 0.91440 -0.03749 
0.25839 0.91440 -0.03742 
0.25016 0.91440 -0.03733 
0.24193 0.91440 -0.03721 
0.23369 0.91440 -0.03706 
0.22546 0.91440 -0.03687 
0.21723 0.91440 -0.03665 
0.20900 0.91440 -0.03639 
0.20078 0.91440 -0.03609 
0.19255 0.91440 -0.03576 
0.18433 0.91440 -0.03537 
0.17610 0.91440 -0.03494 
0.16820 0.91440 -0.03448 
0.16067 0.91440 -0.03400 
0.15350 0.91440 -0.03349 
0.14668 0.91440 -0.03297 
0.14019 0.91440 -0.03243 
0.13400 0.91440 -0.03188 
0.12812 0.91440 -0.03132 
0.12252 0.91440 -0.03075 
0.11719 0.91440 -0.03017 
0.11212 0.91440 -0.02959 
0.10732 0.91440 -0.03003 
0.10276 0.91440 -0.03135 
0.09800 0.91440 -0.03167 
0.09362 0.91440 -0.03110 
0.08963 0.91440 -0.03055 
0.08584 0.91440 -0.02998 
0.08199 0.91440 -0.02938 
0.07814 0.91440 -0.02874 
0.07430 0.91440 -0.02808 
0.07046 0.91440 -0.02738 
0.06663 0.91440 -0.02665 
0.06280 0.91440 -0.02588 
0.05898 0.91440 -0.02509 
0.05516 0.91440 -0.02427 
0.05135 0.91440 -0.02339 
0.04754 0.91440 -0.02247 
0.04373 0.91440 -0.02150 
0.03994 0.91440 -0.02046 
0.03616 0.91440 -0.01934 
0.03239 0.91440 -0.01815 
0.02864 0.91440 -0.01685 
0.02492 0.91440 -0.01544 
0.02123 0.91440 -0.01388 
0.01759 0.91440 -0.01215 
0.01403 0.91440 -0.01021 
0.01058 0.91440 -0.00802 
0.00731 0.91440 -0.00551 
0.00427 0.91440 -0.00271 
0.00196 0.91440 -0.00009 
0.00026 0.91440 0.00220 
-0.00121 0.91440 0.00402 
-0.00282 0.91440 0.00548 
-0.00472 0.91440 0.00739 
-0.00648 0.91440 0.01055 
-0.00718 0.91440 0.01503 
-0.00612 0.91440 0.02020 
-0.00291 0.91440 0.02489 
0.00276 0.91440 0.02876 
0.01074 0.91440 0.02890 
0.01462 0.91440 0.02509 
0.01771 0.91440 0.02342 
0.02138 0.91440 0.02458 
0.02509 0.91440 0.02559 
0.02883 0.91440 0.02649 
0.03260 0.91440 0.02728 
0.03638 0.91440 0.02798 
0.04018 0.91440 0.02861 
0.04399 0.91440 0.02917 
0.04780 0.91440 0.02967 
0.05163 0.91440 0.03012 
0.05545 0.91440 0.03052 
0.05929 0.91440 0.03087 
0.06312 0.91440 0.03117 
0.06696 0.91440 0.03144 
0.07080 0.91440 0.03167 
0.07465 0.91440 0.03187 
0.07849 0.91440 0.03203 
0.08234 0.91440 0.03217 
0.08618 0.91440 0.03228 
0.09003 0.91440 0.03235 
0.09374 0.91440 0.03241 
0.09763 0.91440 0.03244 
0.10172 0.91440 0.03244 
0.10601 0.91440 0.03242 
0.11052 0.91440 0.03237 
0.11525 0.91440 0.03228 
0.12022 0.91440 0.03217 
0.12544 0.91440 0.03201 
0.13091 0.91440 0.03181 
0.13666 0.91440 0.03156 
0.14269 0.91440 0.03127 
0.14903 0.91440 0.03092 
0.15567 0.91440 0.03051 
0.16265 0.91440 0.03004 
0.16997 0.91440 0.02950 
0.17766 0.91440 0.02889 
0.18572 0.91440 0.02820 
0.19400 0.91440 0.02745 
0.20227 0.91440 0.02665 
0.21054 0.91440 0.02580 
0.21880 0.91440 0.02492 
0.22706 0.91440 0.02400 
0.23531 0.91440 0.02304 
0.24356 0.91440 0.02204 
0.25180 0.91440 0.02102 
0.26005 0.91440 0.01996 
0.26828 0.91440 0.01888 
0.27652 0.91440 0.01776 
0.28475 0.91440 0.01662 
0.29297 0.91440 0.01545 
0.30120 0.91440 0.01426 
0.30942 0.91440 0.01305 
0.31763 0.91440 0.01181 
0.32585 0.91440 0.01056 
0.33406 0.91440 0.00928 
0.34227 0.91440 0.00798 
0.35047 0.91440 0.00666 
0.35867 0.91440 0.00533 
0.36687 0.91440 0.00397 
0.37506 0.91440 0.00260 
0.38326 0.91440 0.00121 
0.39144 0.91440 -0.00020 
0.39963 0.91440 -0.00162 
0.40781 0.91440 -0.00306 
0.41599 0.91440 -0.00452 
0.42417 0.91440 -0.00600 
0.43235 0.91440 -0.00749 
0.44052 0.91440 -0.00900 
0.44868 0.91440 -0.01052 
0.45685 0.91440 -0.01206 
0.46501 0.91440 -0.01362 
0.47317 0.91440 -0.01520 
0.48132 0.91440 -0.01679 
0.48947 0.91440 -0.01840 
0.49762 0.91440 -0.02003 
0.50577 0.91440 -0.02168 
0.51391 0.91440 -0.02335 
0.52131 0.91440 -0.02489 
0.52594 0.91440 -0.02586 
0.52883 0.91440 -0.02646 
0.53064 0.91440 -0.02685 
0.53177 0.91440 -0.02709 
0.53247 0.91440 -0.02724 
0.53246 0.91440 -0.02746 
0.53244 0.91440 -0.02768 
0.53243 0.91440 -0.02791 

ZONE T="SLICE_Y_0p9144_BINS03_KS_0p5mm_SINGLE_LAYER"
0.53243 0.91440 -0.02791 
0.53241 0.91440 -0.02813 
0.53239 0.91440 -0.02835 
0.53238 0.91440 -0.02858 
0.53166 0.91440 -0.02863 
0.53051 0.91440 -0.02871 
0.52867 0.91440 -0.02883 
0.52572 0.91440 -0.02903 
0.52100 0.91440 -0.02935 
0.51345 0.91440 -0.02984 
0.50524 0.91440 -0.03035 
0.49702 0.91440 -0.03085 
0.48880 0.91440 -0.03133 
0.48058 0.91440 -0.03179 
0.47236 0.91440 -0.03223 
0.46413 0.91440 -0.03265 
0.45591 0.91440 -0.03305 
0.44769 0.91440 -0.03344 
0.43946 0.91440 -0.03381 
0.43124 0.91440 -0.03417 
0.42301 0.91440 -0.03450 
0.41478 0.91440 -0.03482 
0.40656 0.91440 -0.03513 
0.39833 0.91440 -0.03542 
0.39010 0.91440 -0.03569 
0.38187 0.91440 -0.03594 
0.37364 0.91440 -0.03618 
0.36541 0.91440 -0.03640 
0.35718 0.91440 -0.03660 
0.34895 0.91440 -0.03678 
0.34072 0.91440 -0.03695 
0.33249 0.91440 -0.03709 
0.32425 0.91440 -0.03722 
0.31602 0.91440 -0.03733 
0.30779 0.91440 -0.03741 
0.29956 0.91440 -0.03747 
0.29132 0.91440 -0.03751 
0.28309 0.91440 -0.03753 
0.27486 0.91440 -0.03752 
0.26662 0.91440 -0.03749 
0.25839 0.91440 -0.03742 
0.25016 0.91440 -0.03733 
0.24193 0.91440 -0.03721 
0.23369 0.91440 -0.03706 
0.22546 0.91440 -0.03687 
0.21723 0.91440 -0.03665 
0.20900 0.91440 -0.03639 
0.20078 0.91440 -0.03609 
0.19255 0.91440 -0.03576 
0.18433 0.91440 -0.03537 
0.17610 0.91440 -0.03494 
0.16820 0.91440 -0.03448 
0.16067 0.91440 -0.03400 
0.15350 0.91440 -0.03349 
0.14668 0.91440 -0.03297 
0.14019 0.91440 -0.03243 
0.13400 0.91440 -0.03191 
0.12811 0.91440 -0.03141 
0.12251 0.91440 -0.03090 
0.11719 0.91440 -0.03045 
0.11224 0.91440 -0.03168 
0.10716 0.91440 -0.03286 
0.10220 0.91440 -0.03230 
0.09779 0.91440 -0.03177 
0.09360 0.91440 -0.03118 
0.08962 0.91440 -0.03060 
0.08583 0.91440 -0.03004 
0.08198 0.91440 -0.02944 
0.07813 0.91440 -0.02881 
0.07429 0.91440 -0.02815 
0.07045 0.91440 -0.02746 
0.06662 0.91440 -0.02673 
0.06278 0.91440 -0.02597 
0.05896 0.91440 -0.02517 
0.05514 0.91440 -0.02432 
0.05133 0.91440 -0.02344 
0.04752 0.91440 -0.02251 
0.04372 0.91440 -0.02152 
0.03993 0.91440 -0.02047 
0.03615 0.91440 -0.01935 
0.03238 0.91440 -0.01815 
0.02864 0.91440 -0.01684 
0.02492 0.91440 -0.01542 
0.02123 0.91440 -0.01385 
0.01760 0.91440 -0.01211 
0.01405 0.91440 -0.01015 
0.01062 0.91440 -0.00795 
0.00736 0.91440 -0.00545 
0.00432 0.91440 -0.00266 
0.00202 0.91440 -0.00004 
0.00032 0.91440 0.00224 
-0.00115 0.91440 0.00406 
-0.00276 0.91440 0.00551 
-0.00466 0.91440 0.00740 
-0.00643 0.91440 0.01054 
-0.00716 0.91440 0.01499 
-0.00614 0.91440 0.02015 
-0.00300 0.91440 0.02486 
0.00254 0.91440 0.02878 
0.01052 0.91440 0.02926 
0.01474 0.91440 0.02558 
0.01769 0.91440 0.02364 
0.02138 0.91440 0.02458 
0.02509 0.91440 0.02559 
0.02883 0.91440 0.02649 
0.03260 0.91440 0.02728 
0.03638 0.91440 0.02798 
0.04018 0.91440 0.02861 
0.04399 0.91440 0.02917 
0.04780 0.91440 0.02967 
0.05163 0.91440 0.03012 
0.05545 0.91440 0.03052 
0.05929 0.91440 0.03087 
0.06312 0.91440 0.03117 
0.06696 0.91440 0.03144 
0.07080 0.91440 0.03167 
0.07465 0.91440 0.03187 
0.07849 0.91440 0.03203 
0.08234 0.91440 0.03217 
0.08618 0.91440 0.03228 
0.09003 0.91440 0.03235 
0.09374 0.91440 0.03241 
0.09763 0.91440 0.03244 
0.10172 0.91440 0.03244 
0.10601 0.91440 0.03242 
0.11052 0.91440 0.03237 
0.11525 0.91440 0.03228 
0.12022 0.91440 0.03217 
0.12544 0.91440 0.03201 
0.13091 0.91440 0.03181 
0.13666 0.91440 0.03156 
0.14269 0.91440 0.03127 
0.14903 0.91440 0.03092 
0.15567 0.91440 0.03051 
0.16265 0.91440 0.03004 
0.16997 0.91440 0.02950 
0.17766 0.91440 0.02889 
0.18572 0.91440 0.02820 
0.19400 0.91440 0.02745 
0.20227 0.91440 0.02665 
0.21054 0.91440 0.02580 
0.21880 0.91440 0.02492 
0.22706 0.91440 0.02400 
0.23531 0.91440 0.02304 
0.24356 0.91440 0.02204 
0.25180 0.91440 0.02102 
0.26005 0.91440 0.01996 
0.26828 0.91440 0.01888 
0.27652 0.91440 0.01776 
0.28475 0.91440 0.01662 
0.29297 0.91440 0.01545 
0.30120 0.91440 0.01426 
0.30942 0.91440 0.01305 
0.31763 0.91440 0.01181 
0.32585 0.91440 0.01056 
0.33406 0.91440 0.00928 
0.34227 0.91440 0.00798 
0.35047 0.91440 0.00666 
0.35867 0.91440 0.00533 
0.36687 0.91440 0.00397 
0.37506 0.91440 0.00260 
0.38326 0.91440 0.00121 
0.39144 0.91440 -0.00020 
0.39963 0.91440 -0.00162 
0.40781 0.91440 -0.00306 
0.41599 0.91440 -0.00452 
0.42417 0.91440 -0.00600 
0.43235 0.91440 -0.00749 
0.44052 0.91440 -0.00900 
0.44868 0.91440 -0.01052 
0.45685 0.91440 -0.01206 
0.46501 0.91440 -0.01362 
0.47317 0.91440 -0.01520 
0.48132 0.91440 -0.01679 
0.48947 0.91440 -0.01840 
0.49762 0.91440 -0.02003 
0.50577 0.91440 -0.02168 
0.51391 0.91440 -0.02335 
0.52131 0.91440 -0.02489 
0.52594 0.91440 -0.02586 
0.52883 0.91440 -0.02646 
0.53064 0.91440 -0.02685 
0.53177 0.91440 -0.02709 
0.53247 0.91440 -0.02724 
0.53246 0.91440 -0.02746 
0.53244 0.91440 -0.02768 
0.53243 0.91440 -0.02791 

ZONE T="SLICE_Y_0p9144_BINS07_KS_0p5mm_SINGLE_LAYER"
0.53243 0.91440 -0.02791 
0.53241 0.91440 -0.02813 
0.53239 0.91440 -0.02835 
0.53238 0.91440 -0.02858 
0.53166 0.91440 -0.02863 
0.53051 0.91440 -0.02871 
0.52867 0.91440 -0.02883 
0.52572 0.91440 -0.02903 
0.52100 0.91440 -0.02935 
0.51345 0.91440 -0.02984 
0.50524 0.91440 -0.03035 
0.49702 0.91440 -0.03085 
0.48880 0.91440 -0.03133 
0.48058 0.91440 -0.03179 
0.47236 0.91440 -0.03223 
0.46413 0.91440 -0.03265 
0.45591 0.91440 -0.03305 
0.44769 0.91440 -0.03344 
0.43946 0.91440 -0.03381 
0.43124 0.91440 -0.03417 
0.42301 0.91440 -0.03450 
0.41478 0.91440 -0.03482 
0.40656 0.91440 -0.03513 
0.39833 0.91440 -0.03542 
0.39010 0.91440 -0.03569 
0.38187 0.91440 -0.03594 
0.37364 0.91440 -0.03618 
0.36541 0.91440 -0.03640 
0.35718 0.91440 -0.03660 
0.34895 0.91440 -0.03678 
0.34072 0.91440 -0.03695 
0.33249 0.91440 -0.03709 
0.32425 0.91440 -0.03722 
0.31602 0.91440 -0.03733 
0.30779 0.91440 -0.03741 
0.29956 0.91440 -0.03747 
0.29132 0.91440 -0.03751 
0.28309 0.91440 -0.03753 
0.27486 0.91440 -0.03752 
0.26662 0.91440 -0.03749 
0.25839 0.91440 -0.03742 
0.25016 0.91440 -0.03733 
0.24193 0.91440 -0.03721 
0.23369 0.91440 -0.03706 
0.22546 0.91440 -0.03687 
0.21723 0.91440 -0.03665 
0.20900 0.91440 -0.03639 
0.20078 0.91440 -0.03609 
0.19255 0.91440 -0.03576 
0.18433 0.91440 -0.03537 
0.17610 0.91440 -0.03494 
0.16820 0.91440 -0.03448 
0.16067 0.91440 -0.03400 
0.15350 0.91440 -0.03349 
0.14668 0.91440 -0.03297 
0.14018 0.91440 -0.03244 
0.13400 0.91440 -0.03192 
0.12811 0.91440 -0.03142 
0.12251 0.91440 -0.03091 
0.11719 0.91440 -0.03082 
0.11222 0.91440 -0.03205 
0.10709 0.91440 -0.03284 
0.10220 0.91440 -0.03228 
0.09780 0.91440 -0.03174 
0.09361 0.91440 -0.03115 
0.08963 0.91440 -0.03057 
0.08584 0.91440 -0.03001 
0.08199 0.91440 -0.02941 
0.07814 0.91440 -0.02879 
0.07430 0.91440 -0.02813 
0.07046 0.91440 -0.02745 
0.06662 0.91440 -0.02673 
0.06279 0.91440 -0.02597 
0.05896 0.91440 -0.02517 
0.05514 0.91440 -0.02433 
0.05133 0.91440 -0.02344 
0.04752 0.91440 -0.02250 
0.04372 0.91440 -0.02151 
0.03993 0.91440 -0.02046 
0.03615 0.91440 -0.01933 
0.03239 0.91440 -0.01812 
0.02865 0.91440 -0.01680 
0.02493 0.91440 -0.01537 
0.02126 0.91440 -0.01379 
0.01763 0.91440 -0.01205 
0.01408 0.91440 -0.01010 
0.01064 0.91440 -0.00791 
0.00739 0.91440 -0.00541 
0.00436 0.91440 -0.00262 
0.00205 0.91440 -0.00001 
0.00036 0.91440 0.00226 
-0.00112 0.91440 0.00409 
-0.00272 0.91440 0.00554 
-0.00461 0.91440 0.00742 
-0.00638 0.91440 0.01055 
-0.00709 0.91440 0.01498 
-0.00608 0.91440 0.02011 
-0.00296 0.91440 0.02479 
0.00260 0.91440 0.02874 
0.01057 0.91440 0.02912 
0.01469 0.91440 0.02548 
0.01768 0.91440 0.02368 
0.02137 0.91440 0.02460 
0.02509 0.91440 0.02559 
0.02883 0.91440 0.02649 
0.03260 0.91440 0.02728 
0.03638 0.91440 0.02798 
0.04018 0.91440 0.02861 
0.04399 0.91440 0.02917 
0.04780 0.91440 0.02967 
0.05163 0.91440 0.03012 
0.05545 0.91440 0.03052 
0.05929 0.91440 0.03087 
0.06312 0.91440 0.03117 
0.06696 0.91440 0.03144 
0.07080 0.91440 0.03167 
0.07465 0.91440 0.03187 
0.07849 0.91440 0.03203 
0.08234 0.91440 0.03217 
0.08618 0.91440 0.03228 
0.09003 0.91440 0.03235 
0.09374 0.91440 0.03241 
0.09763 0.91440 0.03244 
0.10172 0.91440 0.03244 
0.10601 0.91440 0.03242 
0.11052 0.91440 0.03237 
0.11525 0.91440 0.03228 
0.12022 0.91440 0.03217 
0.12544 0.91440 0.03201 
0.13091 0.91440 0.03181 
0.13666 0.91440 0.03156 
0.14269 0.91440 0.03127 
0.14903 0.91440 0.03092 
0.15567 0.91440 0.03051 
0.16265 0.91440 0.03004 
0.16997 0.91440 0.02950 
0.17766 0.91440 0.02889 
0.18572 0.91440 0.02820 
0.19400 0.91440 0.02745 
0.20227 0.91440 0.02665 
0.21054 0.91440 0.02580 
0.21880 0.91440 0.02492 
0.22706 0.91440 0.02400 
0.23531 0.91440 0.02304 
0.24356 0.91440 0.02204 
0.25180 0.91440 0.02102 
0.26005 0.91440 0.01996 
0.26828 0.91440 0.01888 
0.27652 0.91440 0.01776 
0.28475 0.91440 0.01662 
0.29297 0.91440 0.01545 
0.30120 0.91440 0.01426 
0.30942 0.91440 0.01305 
0.31763 0.91440 0.01181 
0.32585 0.91440 0.01056 
0.33406 0.91440 0.00928 
0.34227 0.91440 0.00798 
0.35047 0.91440 0.00666 
0.35867 0.91440 0.00533 
0.36687 0.91440 0.00397 
0.37506 0.91440 0.00260 
0.38326 0.91440 0.00121 
0.39144 0.91440 -0.00020 
0.39963 0.91440 -0.00162 
0.40781 0.91440 -0.00306 
0.41599 0.91440 -0.00452 
0.42417 0.91440 -0.00600 
0.43235 0.91440 -0.00749 
0.44052 0.91440 -0.00900 
0.44868 0.91440 -0.01052 
0.45685 0.91440 -0.01206 
0.46501 0.91440 -0.01362 
0.47317 0.91440 -0.01520 
0.48132 0.91440 -0.01679 
0.48947 0.91440 -0.01840 
0.49762 0.91440 -0.02003 
0.50577 0.91440 -0.02168 
0.51391 0.91440 -0.02335 
0.52131 0.91440 -0.02489 
0.52594 0.91440 -0.02586 
0.52883 0.91440 -0.02646 
0.53064 0.91440 -0.02685 
0.53177 0.91440 -0.02709 
0.53247 0.91440 -0.02724 
0.53246 0.91440 -0.02746 
0.53244 0.91440 -0.02768 
0.53243 0.91440 -0.02791 

ZONE T="SLICE_Y_0p9144_BINS15_KS_0p5mm_SINGLE_LAYER"
0.53243 0.91440 -0.02791 
0.53241 0.91440 -0.02813 
0.53239 0.91440 -0.02835 
0.53238 0.91440 -0.02858 
0.53166 0.91440 -0.02863 
0.53051 0.91440 -0.02871 
0.52867 0.91440 -0.02883 
0.52572 0.91440 -0.02903 
0.52100 0.91440 -0.02935 
0.51345 0.91440 -0.02984 
0.50524 0.91440 -0.03035 
0.49702 0.91440 -0.03085 
0.48880 0.91440 -0.03133 
0.48058 0.91440 -0.03179 
0.47236 0.91440 -0.03223 
0.46413 0.91440 -0.03265 
0.45591 0.91440 -0.03305 
0.44769 0.91440 -0.03344 
0.43946 0.91440 -0.03381 
0.43124 0.91440 -0.03417 
0.42301 0.91440 -0.03450 
0.41478 0.91440 -0.03482 
0.40656 0.91440 -0.03513 
0.39833 0.91440 -0.03542 
0.39010 0.91440 -0.03569 
0.38187 0.91440 -0.03594 
0.37364 0.91440 -0.03618 
0.36541 0.91440 -0.03640 
0.35718 0.91440 -0.03660 
0.34895 0.91440 -0.03678 
0.34072 0.91440 -0.03695 
0.33249 0.91440 -0.03709 
0.32425 0.91440 -0.03722 
0.31602 0.91440 -0.03733 
0.30779 0.91440 -0.03741 
0.29956 0.91440 -0.03747 
0.29132 0.91440 -0.03751 
0.28309 0.91440 -0.03753 
0.27486 0.91440 -0.03752 
0.26662 0.91440 -0.03749 
0.25839 0.91440 -0.03742 
0.25016 0.91440 -0.03733 
0.24193 0.91440 -0.03721 
0.23369 0.91440 -0.03706 
0.22546 0.91440 -0.03687 
0.21723 0.91440 -0.03665 
0.20900 0.91440 -0.03639 
0.20078 0.91440 -0.03609 
0.19255 0.91440 -0.03576 
0.18433 0.91440 -0.03537 
0.17610 0.91440 -0.03494 
0.16820 0.91440 -0.03448 
0.16067 0.91440 -0.03400 
0.15350 0.91440 -0.03349 
0.14668 0.91440 -0.03297 
0.14018 0.91440 -0.03246 
0.13400 0.91440 -0.03195 
0.12811 0.91440 -0.03143 
0.12251 0.91440 -0.03091 
0.11719 0.91440 -0.03076 
0.11222 0.91440 -0.03198 
0.10710 0.91440 -0.03284 
0.10220 0.91440 -0.03228 
0.09780 0.91440 -0.03174 
0.09361 0.91440 -0.03115 
0.08962 0.91440 -0.03058 
0.08584 0.91440 -0.03001 
0.08199 0.91440 -0.02942 
0.07814 0.91440 -0.02879 
0.07430 0.91440 -0.02813 
0.07046 0.91440 -0.02745 
0.06662 0.91440 -0.02672 
0.06279 0.91440 -0.02597 
0.05896 0.91440 -0.02517 
0.05514 0.91440 -0.02433 
0.05133 0.91440 -0.02344 
0.04752 0.91440 -0.02251 
0.04372 0.91440 -0.02151 
0.03993 0.91440 -0.02046 
0.03615 0.91440 -0.01933 
0.03239 0.91440 -0.01811 
0.02865 0.91440 -0.01680 
0.02493 0.91440 -0.01537 
0.02125 0.91440 -0.01380 
0.01763 0.91440 -0.01205 
0.01408 0.91440 -0.01010 
0.01065 0.91440 -0.00790 
0.00739 0.91440 -0.00541 
0.00436 0.91440 -0.00262 
0.00206 0.91440 -0.00001 
0.00036 0.91440 0.00227 
-0.00111 0.91440 0.00409 
-0.00272 0.91440 0.00554 
-0.00461 0.91440 0.00742 
-0.00637 0.91440 0.01055 
-0.00709 0.91440 0.01498 
-0.00608 0.91440 0.02011 
-0.00296 0.91440 0.02479 
0.00262 0.91440 0.02875 
0.01059 0.91440 0.02909 
0.01467 0.91440 0.02545 
0.01768 0.91440 0.02369 
0.02137 0.91440 0.02461 
0.02509 0.91440 0.02559 
0.02883 0.91440 0.02649 
0.03260 0.91440 0.02728 
0.03638 0.91440 0.02798 
0.04018 0.91440 0.02861 
0.04399 0.91440 0.02917 
0.04780 0.91440 0.02967 
0.05163 0.91440 0.03012 
0.05545 0.91440 0.03052 
0.05929 0.91440 0.03087 
0.06312 0.91440 0.03117 
0.06696 0.91440 0.03144 
0.07080 0.91440 0.03167 
0.07465 0.91440 0.03187 
0.07849 0.91440 0.03203 
0.08234 0.91440 0.03217 
0.08618 0.91440 0.03228 
0.09003 0.91440 0.03235 
0.09374 0.91440 0.03241 
0.09763 0.91440 0.03244 
0.10172 0.91440 0.03244 
0.10601 0.91440 0.03242 
0.11052 0.91440 0.03237 
0.11525 0.91440 0.03228 
0.12022 0.91440 0.03217 
0.12544 0.91440 0.03201 
0.13091 0.91440 0.03181 
0.13666 0.91440 0.03156 
0.14269 0.91440 0.03127 
0.14903 0.91440 0.03092 
0.15567 0.91440 0.03051 
0.16265 0.91440 0.03004 
0.16997 0.91440 0.02950 
0.17766 0.91440 0.02889 
0.18572 0.91440 0.02820 
0.19400 0.91440 0.02745 
0.20227 0.91440 0.02665 
0.21054 0.91440 0.02580 
0.21880 0.91440 0.02492 
0.22706 0.91440 0.02400 
0.23531 0.91440 0.02304 
0.24356 0.91440 0.02204 
0.25180 0.91440 0.02102 
0.26005 0.91440 0.01996 
0.26828 0.91440 0.01888 
0.27652 0.91440 0.01776 
0.28475 0.91440 0.01662 
0.29297 0.91440 0.01545 
0.30120 0.91440 0.01426 
0.30942 0.91440 0.01305 
0.31763 0.91440 0.01181 
0.32585 0.91440 0.01056 
0.33406 0.91440 0.00928 
0.34227 0.91440 0.00798 
0.35047 0.91440 0.00666 
0.35867 0.91440 0.00533 
0.36687 0.91440 0.00397 
0.37506 0.91440 0.00260 
0.38326 0.91440 0.00121 
0.39144 0.91440 -0.00020 
0.39963 0.91440 -0.00162 
0.40781 0.91440 -0.00306 
0.41599 0.91440 -0.00452 
0.42417 0.91440 -0.00600 
0.43235 0.91440 -0.00749 
0.44052 0.91440 -0.00900 
0.44868 0.91440 -0.01052 
0.45685 0.91440 -0.01206 
0.46501 0.91440 -0.01362 
0.47317 0.91440 -0.01520 
0.48132 0.91440 -0.01679 
0.48947 0.91440 -0.01840 
0.49762 0.91440 -0.02003 
0.50577 0.91440 -0.02168 
0.51391 0.91440 -0.02335 
0.52131 0.91440 -0.02489 
0.52594 0.91440 -0.02586 
0.52883 0.91440 -0.02646 
0.53064 0.91440 -0.02685 
0.53177 0.91440 -0.02709 
0.53247 0.91440 -0.02724 
0.53246 0.91440 -0.02746 
0.53244 0.91440 -0.02768 
0.53243 0.91440 -0.02791 

