#+++++++++++++++++++++++++++++++++++++++++++++++++++++++++++++++++++++++++++++++++++++++++++++++++++++++++++++++++++++++++++++++++
#
#   IPW-3 Cut/Slice DATA SUBMITTAL FORM for Test Case NACA0012_AE3932, May 18th 2026
#
#       NOMENCLATURE:
#                  X [m]:  X-coordinate of the surface (clean for reference)
#                  Y [m]:  Y-coordinate of the surface (clean for reference)
#                  Z [m]:  Z-coordinate of the surface (clean for reference)
#                 Cp [-]:  Pressure coefficient
#            HTC [W/m2K]:  Convective Heat Transfer Coefficient (on the rough surface)
#               Beta [-]:  Collection efficiency
#                 Ts [K]:  Surface temperature
#                 FF [-]:  Freezing fraction
#                  k [m]:  Surface roughness height if variable (OPTIONAL)
#         RhoIce [kg/m3]:  Ice density (OPTIONAL)
#      HTC_CLEAN [W/m2K]:  Convective Heat Transfer Coefficient on the surface without roughness (OPTIONAL)
#
#                XXmm:  Roughness height used for the case, in mm.
#                       In the zone name, use the format KS_XXmm.
#                       For example, if k_s = 1.5 mm, use KS_1p5mm. 
#                       For Variable roughness, use KS_VAR
#
#    FLOW CONDITIONS:
#                                   AOA: 4.0 deg
#                           Mach Number: 0.3151 [-]
#       Mean aerodynamic chord (M.A.C.): 0.5334 [m]
#                       Reynolds Number: 3.9795 million (based on MAC)
#                       Freestream Temp: 267.55 [K]
#                        Reference area: 0.97548 [m2]
#               Moment Reference Center: 0.13335, 0, 0 [m] (X, Y, Z)
#
#    ICING CONDITIONS:
#                           Icing Time: 420 [s]
#                                  LWC: 0.55 [g/m3]
#                                  MVD: 20 [μm]
#
#              NOTES: 1. Please use at least 5 decimal places in the numerical values
#                     2. If data are NOT provided, please fill data fields with a numerical value of "-999" 
#
#++++++++++++++++++++++++++++++++++++++++++++++++++++++++++++++++++++++++++++++++++++++++++++++++++++++++++++++++++++

                                                    <- Optional ->                 
VARIABLES = "X" "Y" "Z" "Cp" "HTC" "Beta" "Ts" "FF" "k" "RhoIce" "HTC_CLEAN"

ZONE T="SLICE_Y_0p9144_BINS01_KS_0p5334mm_CUTDATA"
0.53242 0.91440 -0.02795 0.09049 176.17787 0.00000 266.92146 0.00000 -999.00000 880.00000 -999.00000 
0.53242 0.91440 -0.02804 0.09029 176.74836 0.00000 266.92160 0.00000 -999.00000 880.00000 -999.00000 
0.53241 0.91440 -0.02813 0.08948 167.06717 0.00000 266.91673 0.00000 -999.00000 880.00000 -999.00000 
0.53240 0.91440 -0.02822 0.08592 148.62135 0.00000 266.90483 0.00000 -999.00000 880.00000 -999.00000 
0.53240 0.91440 -0.02831 0.08073 127.18281 0.00000 266.88709 0.00000 -999.00000 880.00000 -999.00000 
0.53239 0.91440 -0.02840 0.07470 100.39898 0.00000 266.85446 0.00000 -999.00000 880.00000 -999.00000 
0.53238 0.91440 -0.02849 0.02153 133.31048 0.00000 266.84473 0.00000 -999.00000 880.00000 -999.00000 
0.53238 0.91440 -0.02858 -0.02787 182.31593 0.00000 266.85782 0.00000 -999.00000 880.00000 -999.00000 
0.53213 0.91440 -0.02859 0.14693 288.97024 0.00000 266.98204 0.00000 -999.00000 880.00000 -999.00000 
0.53172 0.91440 -0.02862 0.11012 282.30017 0.00000 266.96034 0.00000 -999.00000 880.00000 -999.00000 
0.53107 0.91440 -0.02867 0.11383 269.44333 0.00000 266.96026 0.00000 -999.00000 880.00000 -999.00000 
0.53003 0.91440 -0.02874 0.11036 267.34301 0.00000 266.95793 0.00000 -999.00000 880.00000 -999.00000 
0.52837 0.91440 -0.02885 0.10631 267.61361 0.00000 266.95572 0.00000 -999.00000 880.00000 -999.00000 
0.52580 0.91440 -0.02903 0.10142 269.72111 0.00000 266.95336 0.00000 -999.00000 880.00000 -999.00000 
0.52324 0.91440 -0.02920 0.09690 272.56186 0.00000 266.95134 0.00000 -999.00000 880.00000 -999.00000 
0.52067 0.91440 -0.02937 0.09209 275.48846 0.00000 266.94916 0.00000 -999.00000 880.00000 -999.00000 
0.51810 0.91440 -0.02954 0.08752 278.30898 0.00000 266.94709 0.00000 -999.00000 880.00000 -999.00000 
0.51553 0.91440 -0.02971 0.08309 280.93754 0.00000 266.94505 0.00000 -999.00000 880.00000 -999.00000 
0.51296 0.91440 -0.02987 0.07882 283.37264 0.00000 266.94305 0.00000 -999.00000 880.00000 -999.00000 
0.51039 0.91440 -0.03003 0.07471 285.65048 0.00000 266.94112 0.00000 -999.00000 880.00000 -999.00000 
0.50782 0.91440 -0.03019 0.07075 287.79424 0.00000 266.93925 0.00000 -999.00000 880.00000 -999.00000 
0.50525 0.91440 -0.03035 0.06692 289.82995 0.00000 266.93742 0.00000 -999.00000 880.00000 -999.00000 
0.50268 0.91440 -0.03051 0.06320 291.78565 0.00000 266.93563 0.00000 -999.00000 880.00000 -999.00000 
0.50011 0.91440 -0.03067 0.05962 293.67314 0.00000 266.93391 0.00000 -999.00000 880.00000 -999.00000 
0.49754 0.91440 -0.03082 0.05616 295.48651 0.00000 266.93224 0.00000 -999.00000 880.00000 -999.00000 
0.49497 0.91440 -0.03097 0.05279 297.22820 0.00000 266.93061 0.00000 -999.00000 880.00000 -999.00000 
0.49240 0.91440 -0.03112 0.04954 298.90775 0.00000 266.92904 0.00000 -999.00000 880.00000 -999.00000 
0.48983 0.91440 -0.03127 0.04638 300.52375 0.00000 266.92750 0.00000 -999.00000 880.00000 -999.00000 
0.48726 0.91440 -0.03141 0.04331 302.08677 0.00000 266.92600 0.00000 -999.00000 880.00000 -999.00000 
0.48469 0.91440 -0.03156 0.04033 303.60219 0.00000 266.92454 0.00000 -999.00000 880.00000 -999.00000 
0.48212 0.91440 -0.03170 0.03744 305.06626 0.00000 266.92312 0.00000 -999.00000 880.00000 -999.00000 
0.47955 0.91440 -0.03184 0.03463 306.48032 0.00000 266.92174 0.00000 -999.00000 880.00000 -999.00000 
0.47698 0.91440 -0.03198 0.03189 307.85272 0.00000 266.92039 0.00000 -999.00000 880.00000 -999.00000 
0.47441 0.91440 -0.03212 0.02923 309.18667 0.00000 266.91908 0.00000 -999.00000 880.00000 -999.00000 
0.47184 0.91440 -0.03225 0.02664 310.48290 0.00000 266.91779 0.00000 -999.00000 880.00000 -999.00000 
0.46927 0.91440 -0.03239 0.02410 311.74538 0.00000 266.91654 0.00000 -999.00000 880.00000 -999.00000 
0.46670 0.91440 -0.03252 0.02164 312.97528 0.00000 266.91532 0.00000 -999.00000 880.00000 -999.00000 
0.46413 0.91440 -0.03265 0.01924 314.17050 0.00000 266.91413 0.00000 -999.00000 880.00000 -999.00000 
0.46156 0.91440 -0.03278 0.01689 315.33498 0.00000 266.91296 0.00000 -999.00000 880.00000 -999.00000 
0.45899 0.91440 -0.03290 0.01459 316.47378 0.00000 266.91181 0.00000 -999.00000 880.00000 -999.00000 
0.45642 0.91440 -0.03303 0.01233 317.59351 0.00000 266.91069 0.00000 -999.00000 880.00000 -999.00000 
0.45384 0.91440 -0.03315 0.01015 318.69255 0.00000 266.90960 0.00000 -999.00000 880.00000 -999.00000 
0.45127 0.91440 -0.03327 0.00800 319.76185 0.00000 266.90853 0.00000 -999.00000 880.00000 -999.00000 
0.44870 0.91440 -0.03339 0.00588 320.81186 0.00000 266.90747 0.00000 -999.00000 880.00000 -999.00000 
0.44613 0.91440 -0.03351 0.00383 321.85442 0.00000 266.90644 0.00000 -999.00000 880.00000 -999.00000 
0.44356 0.91440 -0.03363 0.00182 322.87184 0.00000 266.90544 0.00000 -999.00000 880.00000 -999.00000 
0.44099 0.91440 -0.03374 -0.00018 323.87011 0.00000 266.90444 0.00000 -999.00000 880.00000 -999.00000 
0.43841 0.91440 -0.03386 -0.00211 324.86269 0.00000 266.90347 0.00000 -999.00000 880.00000 -999.00000 
0.43584 0.91440 -0.03397 -0.00403 325.83606 0.00000 266.90251 0.00000 -999.00000 880.00000 -999.00000 
0.43327 0.91440 -0.03408 -0.00590 326.79883 0.00000 266.90158 0.00000 -999.00000 880.00000 -999.00000 
0.43070 0.91440 -0.03419 -0.00773 327.74669 0.00000 266.90066 0.00000 -999.00000 880.00000 -999.00000 
0.42813 0.91440 -0.03430 -0.00954 328.67998 0.00000 266.89975 0.00000 -999.00000 880.00000 -999.00000 
0.42555 0.91440 -0.03440 -0.01131 329.60393 0.00000 266.89886 0.00000 -999.00000 880.00000 -999.00000 
0.42298 0.91440 -0.03450 -0.01307 330.51370 0.00000 266.89798 0.00000 -999.00000 880.00000 -999.00000 
0.42041 0.91440 -0.03461 -0.01479 331.41517 0.00000 266.89712 0.00000 -999.00000 880.00000 -999.00000 
0.41784 0.91440 -0.03471 -0.01649 332.30809 0.00000 266.89627 0.00000 -999.00000 880.00000 -999.00000 
0.41527 0.91440 -0.03481 -0.01817 333.19465 0.00000 266.89542 0.00000 -999.00000 880.00000 -999.00000 
0.41269 0.91440 -0.03490 -0.01982 334.07596 0.00000 266.89460 0.00000 -999.00000 880.00000 -999.00000 
0.41012 0.91440 -0.03500 -0.02145 334.95013 0.00000 266.89378 0.00000 -999.00000 880.00000 -999.00000 
0.40755 0.91440 -0.03509 -0.02304 335.81698 0.00000 266.89298 0.00000 -999.00000 880.00000 -999.00000 
0.40498 0.91440 -0.03519 -0.02465 336.67563 0.00000 266.89217 0.00000 -999.00000 880.00000 -999.00000 
0.40240 0.91440 -0.03528 -0.02621 337.53660 0.00000 266.89139 0.00000 -999.00000 880.00000 -999.00000 
0.39983 0.91440 -0.03537 -0.02774 338.38612 0.00000 266.89062 0.00000 -999.00000 880.00000 -999.00000 
0.39726 0.91440 -0.03545 -0.02928 339.22742 0.00000 266.88985 0.00000 -999.00000 880.00000 -999.00000 
0.39468 0.91440 -0.03554 -0.03076 340.06761 0.00000 266.88911 0.00000 -999.00000 880.00000 -999.00000 
0.39211 0.91440 -0.03562 -0.03227 340.89682 0.00000 266.88835 0.00000 -999.00000 880.00000 -999.00000 
0.38954 0.91440 -0.03571 -0.03373 341.73212 0.00000 266.88761 0.00000 -999.00000 880.00000 -999.00000 
0.38697 0.91440 -0.03579 -0.03517 342.55355 0.00000 266.88690 0.00000 -999.00000 880.00000 -999.00000 
0.38439 0.91440 -0.03587 -0.03663 343.36716 0.00000 266.88616 0.00000 -999.00000 880.00000 -999.00000 
0.38182 0.91440 -0.03594 -0.03803 344.18658 0.00000 266.88546 0.00000 -999.00000 880.00000 -999.00000 
0.37925 0.91440 -0.03602 -0.03944 344.99295 0.00000 266.88475 0.00000 -999.00000 880.00000 -999.00000 
0.37667 0.91440 -0.03609 -0.04085 345.80276 0.00000 266.88404 0.00000 -999.00000 880.00000 -999.00000 
0.37410 0.91440 -0.03617 -0.04220 346.61259 0.00000 266.88337 0.00000 -999.00000 880.00000 -999.00000 
0.37153 0.91440 -0.03624 -0.04358 347.41199 0.00000 266.88267 0.00000 -999.00000 880.00000 -999.00000 
0.36895 0.91440 -0.03631 -0.04495 348.22658 0.00000 266.88199 0.00000 -999.00000 880.00000 -999.00000 
0.36638 0.91440 -0.03637 -0.04627 349.04624 0.00000 266.88133 0.00000 -999.00000 880.00000 -999.00000 
0.36381 0.91440 -0.03644 -0.04761 349.85431 0.00000 266.88066 0.00000 -999.00000 880.00000 -999.00000 
0.36123 0.91440 -0.03650 -0.04894 350.67238 0.00000 266.87999 0.00000 -999.00000 880.00000 -999.00000 
0.35866 0.91440 -0.03657 -0.05022 351.49477 0.00000 266.87935 0.00000 -999.00000 880.00000 -999.00000 
0.35609 0.91440 -0.03663 -0.05150 352.29924 0.00000 266.87872 0.00000 -999.00000 880.00000 -999.00000 
0.35351 0.91440 -0.03668 -0.05282 353.10567 0.00000 266.87806 0.00000 -999.00000 880.00000 -999.00000 
0.35094 0.91440 -0.03674 -0.05409 353.93108 0.00000 266.87743 0.00000 -999.00000 880.00000 -999.00000 
0.34837 0.91440 -0.03680 -0.05533 354.75333 0.00000 266.87681 0.00000 -999.00000 880.00000 -999.00000 
0.34579 0.91440 -0.03685 -0.05659 355.57079 0.00000 266.87618 0.00000 -999.00000 880.00000 -999.00000 
0.34322 0.91440 -0.03690 -0.05783 356.39845 0.00000 266.87556 0.00000 -999.00000 880.00000 -999.00000 
0.34064 0.91440 -0.03695 -0.05907 357.23478 0.00000 266.87494 0.00000 -999.00000 880.00000 -999.00000 
0.33807 0.91440 -0.03700 -0.06029 358.07759 0.00000 266.87434 0.00000 -999.00000 880.00000 -999.00000 
0.33550 0.91440 -0.03704 -0.06150 358.92156 0.00000 266.87374 0.00000 -999.00000 880.00000 -999.00000 
0.33292 0.91440 -0.03709 -0.06270 359.76845 0.00000 266.87315 0.00000 -999.00000 880.00000 -999.00000 
0.33035 0.91440 -0.03713 -0.06389 360.61881 0.00000 266.87256 0.00000 -999.00000 880.00000 -999.00000 
0.32777 0.91440 -0.03717 -0.06508 361.47762 0.00000 266.87197 0.00000 -999.00000 880.00000 -999.00000 
0.32520 0.91440 -0.03721 -0.06625 362.34818 0.00000 266.87139 0.00000 -999.00000 880.00000 -999.00000 
0.32263 0.91440 -0.03724 -0.06742 363.22806 0.00000 266.87082 0.00000 -999.00000 880.00000 -999.00000 
0.32005 0.91440 -0.03728 -0.06857 364.11591 0.00000 266.87026 0.00000 -999.00000 880.00000 -999.00000 
0.31748 0.91440 -0.03731 -0.06972 365.01279 0.00000 266.86969 0.00000 -999.00000 880.00000 -999.00000 
0.31490 0.91440 -0.03734 -0.07086 365.92107 0.00000 266.86914 0.00000 -999.00000 880.00000 -999.00000 
0.31233 0.91440 -0.03737 -0.07198 366.84000 0.00000 266.86859 0.00000 -999.00000 880.00000 -999.00000 
0.30976 0.91440 -0.03739 -0.07310 367.76988 0.00000 266.86805 0.00000 -999.00000 880.00000 -999.00000 
0.30718 0.91440 -0.03742 -0.07420 368.71132 0.00000 266.86751 0.00000 -999.00000 880.00000 -999.00000 
0.30461 0.91440 -0.03744 -0.07530 369.66320 0.00000 266.86698 0.00000 -999.00000 880.00000 -999.00000 
0.30203 0.91440 -0.03746 -0.07638 370.62479 0.00000 266.86646 0.00000 -999.00000 880.00000 -999.00000 
0.29946 0.91440 -0.03747 -0.07745 371.59239 0.00000 266.86595 0.00000 -999.00000 880.00000 -999.00000 
0.29689 0.91440 -0.03749 -0.07852 372.56490 0.00000 266.86543 0.00000 -999.00000 880.00000 -999.00000 
0.29431 0.91440 -0.03750 -0.07957 373.53956 0.00000 266.86493 0.00000 -999.00000 880.00000 -999.00000 
0.29174 0.91440 -0.03751 -0.08062 374.51870 0.00000 266.86443 0.00000 -999.00000 880.00000 -999.00000 
0.28916 0.91440 -0.03752 -0.08165 375.50566 0.00000 266.86393 0.00000 -999.00000 880.00000 -999.00000 
0.28659 0.91440 -0.03753 -0.08268 376.49975 0.00000 266.86344 0.00000 -999.00000 880.00000 -999.00000 
0.28401 0.91440 -0.03753 -0.08369 377.50092 0.00000 266.86296 0.00000 -999.00000 880.00000 -999.00000 
0.28144 0.91440 -0.03753 -0.08470 378.49864 0.00000 266.86248 0.00000 -999.00000 880.00000 -999.00000 
0.27887 0.91440 -0.03753 -0.08569 379.49716 0.00000 266.86201 0.00000 -999.00000 880.00000 -999.00000 
0.27629 0.91440 -0.03752 -0.08668 380.50371 0.00000 266.86153 0.00000 -999.00000 880.00000 -999.00000 
0.27372 0.91440 -0.03752 -0.08764 381.51773 0.00000 266.86108 0.00000 -999.00000 880.00000 -999.00000 
0.27114 0.91440 -0.03751 -0.08861 382.53513 0.00000 266.86062 0.00000 -999.00000 880.00000 -999.00000 
0.26857 0.91440 -0.03750 -0.08955 383.55762 0.00000 266.86018 0.00000 -999.00000 880.00000 -999.00000 
0.26599 0.91440 -0.03748 -0.09048 384.58213 0.00000 266.85974 0.00000 -999.00000 880.00000 -999.00000 
0.26342 0.91440 -0.03746 -0.09140 385.61204 0.00000 266.85931 0.00000 -999.00000 880.00000 -999.00000 
0.26085 0.91440 -0.03744 -0.09230 386.64731 0.00000 266.85889 0.00000 -999.00000 880.00000 -999.00000 
0.25827 0.91440 -0.03742 -0.09319 387.68849 0.00000 266.85848 0.00000 -999.00000 880.00000 -999.00000 
0.25570 0.91440 -0.03740 -0.09405 388.73868 0.00000 266.85808 0.00000 -999.00000 880.00000 -999.00000 
0.25312 0.91440 -0.03737 -0.09492 389.79657 0.00000 266.85768 0.00000 -999.00000 880.00000 -999.00000 
0.25055 0.91440 -0.03734 -0.09574 390.86341 0.00000 266.85730 0.00000 -999.00000 880.00000 -999.00000 
0.24798 0.91440 -0.03730 -0.09657 391.93728 0.00000 266.85692 0.00000 -999.00000 880.00000 -999.00000 
0.24540 0.91440 -0.03727 -0.09737 393.02179 0.00000 266.85656 0.00000 -999.00000 880.00000 -999.00000 
0.24283 0.91440 -0.03723 -0.09816 394.11572 0.00000 266.85620 0.00000 -999.00000 880.00000 -999.00000 
0.24025 0.91440 -0.03718 -0.09892 395.22175 0.00000 266.85586 0.00000 -999.00000 880.00000 -999.00000 
0.23768 0.91440 -0.03714 -0.09967 396.33887 0.00000 266.85553 0.00000 -999.00000 880.00000 -999.00000 
0.23511 0.91440 -0.03709 -0.10040 397.47083 0.00000 266.85521 0.00000 -999.00000 880.00000 -999.00000 
0.23253 0.91440 -0.03703 -0.10110 398.61469 0.00000 266.85491 0.00000 -999.00000 880.00000 -999.00000 
0.22996 0.91440 -0.03698 -0.10178 399.77361 0.00000 266.85461 0.00000 -999.00000 880.00000 -999.00000 
0.22738 0.91440 -0.03692 -0.10244 400.95259 0.00000 266.85434 0.00000 -999.00000 880.00000 -999.00000 
0.22481 0.91440 -0.03686 -0.10307 402.15269 0.00000 266.85407 0.00000 -999.00000 880.00000 -999.00000 
0.22224 0.91440 -0.03679 -0.10367 403.37604 0.00000 266.85383 0.00000 -999.00000 880.00000 -999.00000 
0.21966 0.91440 -0.03672 -0.10426 404.62567 0.00000 266.85360 0.00000 -999.00000 880.00000 -999.00000 
0.21709 0.91440 -0.03665 -0.10480 405.90612 0.00000 266.85339 0.00000 -999.00000 880.00000 -999.00000 
0.21452 0.91440 -0.03657 -0.10532 407.21932 0.00000 266.85320 0.00000 -999.00000 880.00000 -999.00000 
0.21195 0.91440 -0.03649 -0.10581 408.56918 0.00000 266.85302 0.00000 -999.00000 880.00000 -999.00000 
0.20937 0.91440 -0.03641 -0.10626 409.95234 0.00000 266.85287 0.00000 -999.00000 880.00000 -999.00000 
0.20680 0.91440 -0.03632 -0.10669 411.36211 0.00000 266.85274 0.00000 -999.00000 880.00000 -999.00000 
0.20423 0.91440 -0.03622 -0.10706 412.79470 0.00000 266.85264 0.00000 -999.00000 880.00000 -999.00000 
0.20165 0.91440 -0.03613 -0.10741 414.24451 0.00000 266.85255 0.00000 -999.00000 880.00000 -999.00000 
0.19908 0.91440 -0.03603 -0.10772 415.70972 0.00000 266.85248 0.00000 -999.00000 880.00000 -999.00000 
0.19651 0.91440 -0.03592 -0.10799 417.18365 0.00000 266.85244 0.00000 -999.00000 880.00000 -999.00000 
0.19394 0.91440 -0.03582 -0.10823 418.66591 0.00000 266.85241 0.00000 -999.00000 880.00000 -999.00000 
0.19137 0.91440 -0.03570 -0.10841 420.15141 0.00000 266.85242 0.00000 -999.00000 880.00000 -999.00000 
0.18879 0.91440 -0.03559 -0.10857 421.63760 0.00000 266.85244 0.00000 -999.00000 880.00000 -999.00000 
0.18622 0.91440 -0.03546 -0.10866 423.12653 0.00000 266.85250 0.00000 -999.00000 880.00000 -999.00000 
0.18365 0.91440 -0.03534 -0.10874 424.61460 0.00000 266.85256 0.00000 -999.00000 880.00000 -999.00000 
0.18108 0.91440 -0.03521 -0.10873 426.10837 0.00000 266.85267 0.00000 -999.00000 880.00000 -999.00000 
0.17851 0.91440 -0.03507 -0.10870 427.60058 0.00000 266.85279 0.00000 -999.00000 880.00000 -999.00000 
0.17594 0.91440 -0.03493 -0.10862 429.10265 0.00000 266.85294 0.00000 -999.00000 880.00000 -999.00000 
0.17337 0.91440 -0.03479 -0.10845 430.60666 0.00000 266.85315 0.00000 -999.00000 880.00000 -999.00000 
0.17080 0.91440 -0.03464 -0.10828 432.11758 0.00000 266.85335 0.00000 -999.00000 880.00000 -999.00000 
0.16823 0.91440 -0.03448 -0.10802 433.65847 0.00000 266.85360 0.00000 -999.00000 880.00000 -999.00000 
0.16566 0.91440 -0.03432 -0.10768 435.21020 0.00000 266.85390 0.00000 -999.00000 880.00000 -999.00000 
0.16309 0.91440 -0.03416 -0.10733 436.79150 0.00000 266.85421 0.00000 -999.00000 880.00000 -999.00000 
0.16052 0.91440 -0.03399 -0.10686 438.42282 0.00000 266.85459 0.00000 -999.00000 880.00000 -999.00000 
0.15796 0.91440 -0.03381 -0.10630 440.08003 0.00000 266.85502 0.00000 -999.00000 880.00000 -999.00000 
0.15539 0.91440 -0.03363 -0.10572 441.79036 0.00000 266.85546 0.00000 -999.00000 880.00000 -999.00000 
0.15282 0.91440 -0.03344 -0.10501 443.58037 0.00000 266.85598 0.00000 -999.00000 880.00000 -999.00000 
0.15025 0.91440 -0.03325 -0.10418 445.41936 0.00000 266.85657 0.00000 -999.00000 880.00000 -999.00000 
0.14769 0.91440 -0.03305 -0.10332 447.30797 0.00000 266.85718 0.00000 -999.00000 880.00000 -999.00000 
0.14512 0.91440 -0.03285 -0.10237 449.26480 0.00000 266.85785 0.00000 -999.00000 880.00000 -999.00000 
0.14255 0.91440 -0.03263 -0.10128 451.26594 0.00000 266.85859 0.00000 -999.00000 880.00000 -999.00000 
0.13999 0.91440 -0.03242 -0.10008 453.27637 0.00000 266.85940 0.00000 -999.00000 880.00000 -999.00000 
0.13743 0.91440 -0.03219 -0.09882 455.30314 0.00000 266.86024 0.00000 -999.00000 880.00000 -999.00000 
0.13486 0.91440 -0.03196 -0.09747 457.36593 0.00000 266.86114 0.00000 -999.00000 880.00000 -999.00000 
0.13230 0.91440 -0.03172 -0.09601 459.45600 0.00000 266.86210 0.00000 -999.00000 880.00000 -999.00000 
0.12974 0.91440 -0.03148 -0.09441 461.54659 0.00000 266.86313 0.00000 -999.00000 880.00000 -999.00000 
0.12717 0.91440 -0.03123 -0.09268 463.61038 0.00000 266.86424 0.00000 -999.00000 880.00000 -999.00000 
0.12461 0.91440 -0.03097 -0.09084 465.65261 0.00000 266.86541 0.00000 -999.00000 880.00000 -999.00000 
0.12205 0.91440 -0.03070 -0.08886 467.69544 0.00000 266.86666 0.00000 -999.00000 880.00000 -999.00000 
0.11949 0.91440 -0.03043 -0.08673 469.75114 0.00000 266.86799 0.00000 -999.00000 880.00000 -999.00000 
0.11693 0.91440 -0.03015 -0.08444 471.82643 0.00000 266.86941 0.00000 -999.00000 880.00000 -999.00000 
0.11438 0.91440 -0.02986 -0.08198 473.92693 0.00000 266.87092 0.00000 -999.00000 880.00000 -999.00000 
0.11182 0.91440 -0.02956 -0.07934 476.04995 0.00000 266.87254 0.00000 -999.00000 880.00000 -999.00000 
0.10924 0.91440 -0.02925 -0.07656 478.17692 0.00000 266.87424 0.00000 -999.00000 880.00000 -999.00000 
0.10679 0.91440 -0.02894 -0.07372 480.31563 0.00000 266.87597 0.00000 -999.00000 880.00000 -999.00000 
0.10445 0.91440 -0.02865 -0.07086 482.45242 0.00000 266.87772 0.00000 -999.00000 880.00000 -999.00000 
0.10222 0.91440 -0.02836 -0.06793 484.52027 0.00000 266.87950 0.00000 -999.00000 880.00000 -999.00000 
0.10011 0.91440 -0.02808 -0.06503 486.49810 0.00000 266.88125 0.00000 -999.00000 880.00000 -999.00000 
0.09809 0.91440 -0.02780 -0.06213 488.40801 0.00000 266.88300 0.00000 -999.00000 880.00000 -999.00000 
0.09617 0.91440 -0.02754 -0.05916 490.22540 0.00000 266.88478 0.00000 -999.00000 880.00000 -999.00000 
0.09434 0.91440 -0.02728 -0.05625 491.93020 0.00000 266.88652 0.00000 -999.00000 880.00000 -999.00000 
0.09260 0.91440 -0.02702 -0.05337 493.54360 0.00000 266.88824 0.00000 -999.00000 880.00000 -999.00000 
0.09095 0.91440 -0.02678 -0.05055 495.06903 0.00000 266.88992 0.00000 -999.00000 880.00000 -999.00000 
0.08937 0.91440 -0.02654 -0.04770 496.44603 0.00000 266.89161 0.00000 -999.00000 880.00000 -999.00000 
0.08787 0.91440 -0.02631 -0.04571 497.86221 0.00000 266.89281 0.00000 -999.00000 880.00000 -999.00000 
0.08644 0.91440 -0.02609 -0.04204 500.30710 0.00000 266.89502 0.00000 -999.00000 880.00000 -999.00000 
0.08501 0.91440 -0.02586 -0.03811 502.73447 0.00000 266.89737 0.00000 -999.00000 880.00000 -999.00000 
0.08359 0.91440 -0.02563 -0.03591 504.18257 0.00000 266.89869 0.00000 -999.00000 880.00000 -999.00000 
0.08216 0.91440 -0.02540 -0.03291 505.73225 0.00000 266.90047 0.00000 -999.00000 880.00000 -999.00000 
0.08073 0.91440 -0.02516 -0.02974 507.48951 0.00000 266.90235 0.00000 -999.00000 880.00000 -999.00000 
0.07931 0.91440 -0.02492 -0.02642 509.28735 0.00000 266.90433 0.00000 -999.00000 880.00000 -999.00000 
0.07788 0.91440 -0.02467 -0.02296 511.09423 0.00000 266.90638 0.00000 -999.00000 880.00000 -999.00000 
0.07646 0.91440 -0.02442 -0.01938 512.90167 0.00000 266.90849 0.00000 -999.00000 880.00000 -999.00000 
0.07503 0.91440 -0.02417 -0.01566 514.71211 0.00000 266.91069 0.00000 -999.00000 880.00000 -999.00000 
0.07361 0.91440 -0.02391 -0.01180 516.52948 0.00000 266.91296 0.00000 -999.00000 880.00000 -999.00000 
0.07219 0.91440 -0.02365 -0.00781 518.36473 0.00000 266.91531 0.00000 -999.00000 880.00000 -999.00000 
0.07077 0.91440 -0.02339 -0.00367 520.23456 0.00000 266.91774 0.00000 -999.00000 880.00000 -999.00000 
0.06935 0.91440 -0.02312 0.00063 522.15506 0.00000 266.92026 0.00000 -999.00000 880.00000 -999.00000 
0.06793 0.91440 -0.02284 0.00509 524.13738 0.00000 266.92288 0.00000 -999.00000 880.00000 -999.00000 
0.06651 0.91440 -0.02256 0.00972 526.18734 0.00000 266.92559 0.00000 -999.00000 880.00000 -999.00000 
0.06509 0.91440 -0.02228 0.01448 528.32584 0.00000 266.92839 0.00000 -999.00000 880.00000 -999.00000 
0.06367 0.91440 -0.02199 0.01941 530.57986 0.00015 266.88684 0.50000 -999.00000 880.00000 -999.00000 
0.06226 0.91440 -0.02169 0.02458 532.93348 0.00234 266.23233 1.00000 -999.00000 880.00000 -999.00000 
0.06084 0.91440 -0.02139 0.02996 535.35976 0.00634 265.53257 1.00000 -999.00000 880.00000 -999.00000 
0.05943 0.91440 -0.02109 0.03551 537.87961 0.01034 265.48728 1.00000 -999.00000 880.00000 -999.00000 
0.05802 0.91440 -0.02078 0.04130 540.52319 0.01455 265.57510 1.00000 -999.00000 880.00000 -999.00000 
0.05660 0.91440 -0.02046 0.04736 543.28105 0.01898 265.66655 1.00000 -999.00000 880.00000 -999.00000 
0.05519 0.91440 -0.02014 0.05366 546.12949 0.02360 265.76090 1.00000 -999.00000 880.00000 -999.00000 
0.05379 0.91440 -0.01981 0.06026 549.03266 0.02841 265.85811 1.00000 -999.00000 880.00000 -999.00000 
0.05238 0.91440 -0.01948 0.06712 551.95342 0.03339 265.95791 1.00000 -999.00000 880.00000 -999.00000 
0.05097 0.91440 -0.01914 0.07431 554.85417 0.03856 266.06076 1.00000 -999.00000 880.00000 -999.00000 
0.04957 0.91440 -0.01879 0.08180 557.69014 0.04392 266.16647 1.00000 -999.00000 880.00000 -999.00000 
0.04817 0.91440 -0.01844 0.08959 560.44024 0.04947 266.27509 1.00000 -999.00000 880.00000 -999.00000 
0.04677 0.91440 -0.01808 0.09776 563.07336 0.05527 266.38791 1.00000 -999.00000 880.00000 -999.00000 
0.04537 0.91440 -0.01771 0.10633 565.54637 0.06136 266.50555 1.00000 -999.00000 880.00000 -999.00000 
0.04397 0.91440 -0.01734 0.11531 567.86340 0.06768 266.62743 1.00000 -999.00000 880.00000 -999.00000 
0.04258 0.91440 -0.01695 0.12470 570.09434 0.07424 266.75316 1.00000 -999.00000 880.00000 -999.00000 
0.04118 0.91440 -0.01656 0.13455 572.34272 0.08106 266.88300 1.00000 -999.00000 880.00000 -999.00000 
0.03979 0.91440 -0.01617 0.14471 574.76708 0.08815 267.01630 1.00000 -999.00000 880.00000 -999.00000 
0.03841 0.91440 -0.01576 0.15520 577.59586 0.09555 267.15331 1.00000 -999.00000 880.00000 -999.00000 
0.03702 0.91440 -0.01534 0.16637 580.86642 0.10332 267.29501 1.00000 -999.00000 880.00000 -999.00000 
0.03564 0.91440 -0.01492 0.17827 584.35969 0.11143 267.44143 1.00000 -999.00000 880.00000 -999.00000 
0.03426 0.91440 -0.01448 0.19081 587.88315 0.11986 267.59229 1.00000 -999.00000 880.00000 -999.00000 
0.03288 0.91440 -0.01404 0.20408 591.34173 0.12861 267.74843 1.00000 -999.00000 880.00000 -999.00000 
0.03151 0.91440 -0.01358 0.21823 594.63612 0.13773 267.91077 1.00000 -999.00000 880.00000 -999.00000 
0.03014 0.91440 -0.01312 0.23333 597.58991 0.14728 268.08134 1.00000 -999.00000 880.00000 -999.00000 
0.02878 0.91440 -0.01264 0.24934 600.10106 0.15737 268.26206 1.00000 -999.00000 880.00000 -999.00000 
0.02742 0.91440 -0.01215 0.26623 602.29830 0.16798 268.45254 1.00000 -999.00000 880.00000 -999.00000 
0.02606 0.91440 -0.01164 0.28380 604.60767 0.17913 268.65021 1.00000 -999.00000 880.00000 -999.00000 
0.02471 0.91440 -0.01113 0.30233 607.39840 0.19081 268.85360 1.00000 -999.00000 880.00000 -999.00000 
0.02337 0.91440 -0.01060 0.32242 610.17619 0.20310 269.06759 1.00000 -999.00000 880.00000 -999.00000 
0.02203 0.91440 -0.01005 0.34414 611.90776 0.21613 270.86355 1.00000 -999.00000 880.00000 -999.00000 
0.02070 0.91440 -0.00949 0.36759 612.16453 0.23006 272.84937 0.83929 -999.00000 880.00000 -999.00000 
0.01937 0.91440 -0.00890 0.39224 611.84903 0.24491 273.15000 0.59668 -999.00000 880.00000 -999.00000 
0.01806 0.91440 -0.00830 0.41855 612.45633 0.26068 273.15000 0.46836 -999.00000 880.00000 -999.00000 
0.01675 0.91440 -0.00768 0.44771 613.51829 0.27755 273.15000 0.39223 -999.00000 880.00000 -999.00000 
0.01545 0.91440 -0.00704 0.47948 612.67739 0.29567 273.15000 0.34190 -999.00000 880.00000 -999.00000 
0.01417 0.91440 -0.00637 0.51318 609.13692 0.31510 273.15000 0.30668 -999.00000 880.00000 -999.00000 
0.01290 0.91440 -0.00568 0.54964 604.20569 0.33585 273.15000 0.28183 -999.00000 880.00000 -999.00000 
0.01165 0.91440 -0.00496 0.58918 598.73510 0.35824 273.15000 0.26466 -999.00000 880.00000 -999.00000 
0.01041 0.91440 -0.00421 0.63238 592.48224 0.38274 273.15000 0.25346 -999.00000 880.00000 -999.00000 
0.00920 0.91440 -0.00342 0.67982 584.76110 0.40953 273.15000 0.24730 -999.00000 880.00000 -999.00000 
0.00802 0.91440 -0.00259 0.73121 576.04797 0.43854 273.15000 0.24634 -999.00000 880.00000 -999.00000 
0.00686 0.91440 -0.00172 0.78554 567.32769 0.46983 273.15000 0.24762 -999.00000 880.00000 -999.00000 
0.00579 0.91440 -0.00084 0.83992 558.25309 0.50276 273.15000 0.24964 -999.00000 880.00000 -999.00000 
0.00483 0.91440 0.00003 0.89294 549.24931 0.53596 273.15000 0.25763 -999.00000 880.00000 -999.00000 
0.00398 0.91440 0.00089 0.94090 538.85398 0.56847 273.15000 0.27409 -999.00000 880.00000 -999.00000 
0.00324 0.91440 0.00172 0.98095 525.12451 0.60016 273.15000 0.30581 -999.00000 880.00000 -999.00000 
0.00260 0.91440 0.00252 1.01195 511.65300 0.63059 273.15000 0.37410 -999.00000 880.00000 -999.00000 
0.00205 0.91440 0.00332 1.03017 494.49641 0.65882 273.15000 0.45731 -999.00000 880.00000 -999.00000 
0.00158 0.91440 0.00410 1.03117 513.68684 0.68375 273.15000 0.45864 -999.00000 880.00000 -999.00000 
0.00119 0.91440 0.00487 1.01147 576.11692 0.70423 273.15000 0.37517 -999.00000 880.00000 -999.00000 
0.00087 0.91440 0.00562 0.96845 644.69942 0.71933 273.15000 0.30454 -999.00000 880.00000 -999.00000 
0.00064 0.91440 0.00636 0.90093 720.34689 0.72875 273.15000 0.27360 -999.00000 880.00000 -999.00000 
0.00046 0.91440 0.00710 0.80773 800.91512 0.73185 273.15000 0.26457 -999.00000 880.00000 -999.00000 
0.00035 0.91440 0.00784 0.68691 883.99689 0.72788 273.15000 0.26888 -999.00000 880.00000 -999.00000 
0.00031 0.91440 0.00858 0.53890 963.31904 0.71616 273.15000 0.28324 -999.00000 880.00000 -999.00000 
0.00032 0.91440 0.00930 0.45828 1001.11838 0.70818 273.15000 0.29283 -999.00000 880.00000 -999.00000 
0.00041 0.91440 0.01002 0.18310 1082.15066 0.66854 273.15000 0.35271 -999.00000 880.00000 -999.00000 
0.00055 0.91440 0.01074 -0.00958 1131.68132 0.63464 273.15000 0.42634 -999.00000 880.00000 -999.00000 
0.00076 0.91440 0.01145 -0.20889 1167.34718 0.59426 273.15000 0.54905 -999.00000 880.00000 -999.00000 
0.00104 0.91440 0.01216 -0.40511 1188.75867 0.54757 273.15000 0.80034 -999.00000 880.00000 -999.00000 
0.00137 0.91440 0.01285 -0.58822 1195.55633 0.49596 270.48290 0.98693 -999.00000 880.00000 -999.00000 
0.00179 0.91440 0.01356 -0.75451 1190.37865 0.44146 267.36214 1.00000 -999.00000 880.00000 -999.00000 
0.00228 0.91440 0.01426 -0.90060 1175.12411 0.38559 266.58807 1.00000 -999.00000 880.00000 -999.00000 
0.00284 0.91440 0.01497 -1.02343 1152.70778 0.32908 265.96075 1.00000 -999.00000 880.00000 -999.00000 
0.00350 0.91440 0.01567 -1.12688 1126.42481 0.27201 265.35421 1.00000 -999.00000 880.00000 -999.00000 