#++++++++++++++++++++++++++++++++++++++++++++++++++++++++++++++++++++++++++++++++++++++++++++++++++++++++++++++++++++
#
#   IPW-3 Ice Shape DATA SUBMITTAL FORM for Test Case NACA0012_AE3932, May 18th 2026
#
#       NOMENCLATURE:
#             X_ICED [m]:  X-coordinate of the iced surface
#             Y_ICED [m]:  Y-coordinate of the iced surface
#             Z_ICED [m]:  Z-coordinate of the iced surface
#
#                XXmm:  Roughness height used for the case, in mm.
#                       In the zone name, use the format KS_XXmm.
#                       For example, if k_s = 1.5 mm, use KS_1p5mm. 
#                       For Variable roughness, use KS_VAR
#
#    FLOW CONDITIONS:
#                                   AOA: 4.0 deg
#                           Mach Number: 0.3151 [-]
#       Mean aerodynamic chord (M.A.C.): 0.5334 [m]
#                       Reynolds Number: 3.9795 million (based on MAC)
#                       Freestream Temp: 267.55 [K]
#                        Reference area: 0.97548 [m2]
#               Moment Reference Center: 0.13335, 0, 0 [m] (X, Y, Z)
#
#    ICING CONDITIONS:
#                           Icing Time: 420 [s]
#                                  LWC: 0.55 [g/m3]
#                                  MVD: 20 [μm]
#
#              NOTES: 1. Please use at least 5 decimal places in the numerical values
#                     2. If data are NOT provided, please fill data fields with a numerical value of "-999" 
#
#++++++++++++++++++++++++++++++++++++++++++++++++++++++++++++++++++++++++++++++++++++++++++++++++++++++++++++++++++++

AUXDATA NUM_LAYERS  = "insert the number of total ice layers"
                                              
VARIABLES = "X_ICED" "Y_ICED" "Z_ICED"

ZONE T="SLICE_Y_0p9144_BINS01_KS_0p5mm_SINGLE_LAYER"
0.53243 0.91440 -0.02791 
0.53242 0.91440 -0.02802 
0.53241 0.91440 -0.02813 
0.53240 0.91440 -0.02824 
0.53239 0.91440 -0.02835 
0.53239 0.91440 -0.02846 
0.53238 0.91440 -0.02858 
0.53202 0.91440 -0.02860 
0.53144 0.91440 -0.02864 
0.53052 0.91440 -0.02871 
0.52905 0.91440 -0.02881 
0.52669 0.91440 -0.02897 
0.52292 0.91440 -0.02922 
0.51916 0.91440 -0.02947 
0.51540 0.91440 -0.02972 
0.51164 0.91440 -0.02996 
0.50788 0.91440 -0.03019 
0.50412 0.91440 -0.03042 
0.50036 0.91440 -0.03065 
0.49660 0.91440 -0.03088 
0.49284 0.91440 -0.03110 
0.48907 0.91440 -0.03131 
0.48531 0.91440 -0.03152 
0.48155 0.91440 -0.03173 
0.47779 0.91440 -0.03194 
0.47403 0.91440 -0.03214 
0.47027 0.91440 -0.03233 
0.46650 0.91440 -0.03253 
0.46274 0.91440 -0.03272 
0.45898 0.91440 -0.03290 
0.45521 0.91440 -0.03309 
0.45145 0.91440 -0.03327 
0.44769 0.91440 -0.03344 
0.44392 0.91440 -0.03361 
0.44016 0.91440 -0.03378 
0.43640 0.91440 -0.03395 
0.43263 0.91440 -0.03411 
0.42887 0.91440 -0.03426 
0.42510 0.91440 -0.03442 
0.42134 0.91440 -0.03457 
0.41758 0.91440 -0.03472 
0.41381 0.91440 -0.03486 
0.41005 0.91440 -0.03500 
0.40628 0.91440 -0.03514 
0.40252 0.91440 -0.03527 
0.39875 0.91440 -0.03540 
0.39499 0.91440 -0.03553 
0.39122 0.91440 -0.03565 
0.38746 0.91440 -0.03577 
0.38369 0.91440 -0.03589 
0.37992 0.91440 -0.03600 
0.37616 0.91440 -0.03611 
0.37239 0.91440 -0.03621 
0.36863 0.91440 -0.03631 
0.36486 0.91440 -0.03641 
0.36109 0.91440 -0.03651 
0.35733 0.91440 -0.03660 
0.35356 0.91440 -0.03668 
0.34979 0.91440 -0.03677 
0.34603 0.91440 -0.03684 
0.34226 0.91440 -0.03692 
0.33849 0.91440 -0.03699 
0.33473 0.91440 -0.03706 
0.33096 0.91440 -0.03712 
0.32719 0.91440 -0.03718 
0.32343 0.91440 -0.03723 
0.31966 0.91440 -0.03728 
0.31589 0.91440 -0.03733 
0.31213 0.91440 -0.03737 
0.30836 0.91440 -0.03741 
0.30459 0.91440 -0.03744 
0.30082 0.91440 -0.03747 
0.29706 0.91440 -0.03749 
0.29329 0.91440 -0.03751 
0.28952 0.91440 -0.03752 
0.28575 0.91440 -0.03753 
0.28199 0.91440 -0.03753 
0.27822 0.91440 -0.03753 
0.27445 0.91440 -0.03752 
0.27068 0.91440 -0.03751 
0.26692 0.91440 -0.03749 
0.26315 0.91440 -0.03746 
0.25938 0.91440 -0.03743 
0.25562 0.91440 -0.03740 
0.25185 0.91440 -0.03735 
0.24808 0.91440 -0.03730 
0.24431 0.91440 -0.03725 
0.24055 0.91440 -0.03719 
0.23678 0.91440 -0.03712 
0.23301 0.91440 -0.03704 
0.22925 0.91440 -0.03696 
0.22548 0.91440 -0.03687 
0.22172 0.91440 -0.03678 
0.21795 0.91440 -0.03667 
0.21418 0.91440 -0.03656 
0.21042 0.91440 -0.03644 
0.20665 0.91440 -0.03631 
0.20289 0.91440 -0.03618 
0.19912 0.91440 -0.03603 
0.19536 0.91440 -0.03588 
0.19160 0.91440 -0.03571 
0.18783 0.91440 -0.03554 
0.18407 0.91440 -0.03536 
0.18031 0.91440 -0.03517 
0.17654 0.91440 -0.03497 
0.17278 0.91440 -0.03475 
0.16902 0.91440 -0.03453 
0.16526 0.91440 -0.03430 
0.16150 0.91440 -0.03405 
0.15774 0.91440 -0.03380 
0.15399 0.91440 -0.03353 
0.15023 0.91440 -0.03325 
0.14647 0.91440 -0.03295 
0.14272 0.91440 -0.03265 
0.13896 0.91440 -0.03233 
0.13521 0.91440 -0.03199 
0.13146 0.91440 -0.03164 
0.12771 0.91440 -0.03128 
0.12396 0.91440 -0.03090 
0.12034 0.91440 -0.03052 
0.11690 0.91440 -0.03014 
0.11362 0.91440 -0.02977 
0.11049 0.91440 -0.02940 
0.10752 0.91440 -0.02904 
0.10469 0.91440 -0.02868 
0.10200 0.91440 -0.02833 
0.09966 0.91440 -0.02920 
0.09745 0.91440 -0.03080 
0.09448 0.91440 -0.03135 
0.09192 0.91440 -0.03118 
0.08974 0.91440 -0.03097 
0.08770 0.91440 -0.03067 
0.08578 0.91440 -0.03039 
0.08385 0.91440 -0.03009 
0.08193 0.91440 -0.02978 
0.08001 0.91440 -0.02947 
0.07809 0.91440 -0.02915 
0.07617 0.91440 -0.02882 
0.07426 0.91440 -0.02848 
0.07234 0.91440 -0.02813 
0.07042 0.91440 -0.02778 
0.06851 0.91440 -0.02742 
0.06660 0.91440 -0.02705 
0.06469 0.91440 -0.02667 
0.06278 0.91440 -0.02629 
0.06087 0.91440 -0.02590 
0.05896 0.91440 -0.02550 
0.05705 0.91440 -0.02510 
0.05515 0.91440 -0.02468 
0.05324 0.91440 -0.02425 
0.05133 0.91440 -0.02381 
0.04942 0.91440 -0.02335 
0.04752 0.91440 -0.02288 
0.04562 0.91440 -0.02239 
0.04372 0.91440 -0.02189 
0.04183 0.91440 -0.02137 
0.03994 0.91440 -0.02084 
0.03805 0.91440 -0.02029 
0.03617 0.91440 -0.01972 
0.03428 0.91440 -0.01913 
0.03240 0.91440 -0.01852 
0.03052 0.91440 -0.01788 
0.02865 0.91440 -0.01721 
0.02679 0.91440 -0.01652 
0.02494 0.91440 -0.01579 
0.02309 0.91440 -0.01503 
0.02125 0.91440 -0.01422 
0.01942 0.91440 -0.01337 
0.01762 0.91440 -0.01248 
0.01582 0.91440 -0.01154 
0.01405 0.91440 -0.01053 
0.01231 0.91440 -0.00946 
0.01061 0.91440 -0.00832 
0.00894 0.91440 -0.00711 
0.00733 0.91440 -0.00581 
0.00578 0.91440 -0.00444 
0.00431 0.91440 -0.00300 
0.00304 0.91440 -0.00160 
0.00196 0.91440 -0.00026 
0.00104 0.91440 0.00099 
0.00025 0.91440 0.00214 
-0.00048 0.91440 0.00310 
-0.00124 0.91440 0.00387 
-0.00201 0.91440 0.00449 
-0.00286 0.91440 0.00509 
-0.00383 0.91440 0.00588 
-0.00488 0.91440 0.00696 
-0.00594 0.91440 0.00841 
-0.00688 0.91440 0.01029 
-0.00752 0.91440 0.01255 
-0.00776 0.91440 0.01510 
-0.00747 0.91440 0.01784 
-0.00660 0.91440 0.02069 
-0.00501 0.91440 0.02336 
-0.00264 0.91440 0.02585 
0.00066 0.91440 0.02773 
0.00490 0.91440 0.02845 
0.01058 0.91440 0.02728 
0.01255 0.91440 0.02338 
0.01249 0.91440 0.02141 
0.01426 0.91440 0.02215 
0.01605 0.91440 0.02284 
0.01786 0.91440 0.02348 
0.01969 0.91440 0.02407 
0.02153 0.91440 0.02462 
0.02338 0.91440 0.02514 
0.02523 0.91440 0.02563 
0.02710 0.91440 0.02609 
0.02897 0.91440 0.02652 
0.03085 0.91440 0.02692 
0.03273 0.91440 0.02730 
0.03461 0.91440 0.02767 
0.03650 0.91440 0.02801 
0.03840 0.91440 0.02833 
0.04029 0.91440 0.02863 
0.04219 0.91440 0.02892 
0.04409 0.91440 0.02919 
0.04599 0.91440 0.02944 
0.04790 0.91440 0.02969 
0.04980 0.91440 0.02991 
0.05171 0.91440 0.03013 
0.05362 0.91440 0.03033 
0.05553 0.91440 0.03052 
0.05744 0.91440 0.03070 
0.05936 0.91440 0.03087 
0.06127 0.91440 0.03103 
0.06318 0.91440 0.03118 
0.06510 0.91440 0.03132 
0.06701 0.91440 0.03144 
0.06893 0.91440 0.03156 
0.07085 0.91440 0.03167 
0.07276 0.91440 0.03178 
0.07468 0.91440 0.03187 
0.07660 0.91440 0.03196 
0.07852 0.91440 0.03204 
0.08044 0.91440 0.03211 
0.08235 0.91440 0.03217 
0.08427 0.91440 0.03223 
0.08619 0.91440 0.03228 
0.08811 0.91440 0.03232 
0.09003 0.91440 0.03235 
0.09189 0.91440 0.03238 
0.09383 0.91440 0.03241 
0.09588 0.91440 0.03242 
0.09802 0.91440 0.03244 
0.10028 0.91440 0.03244 
0.10264 0.91440 0.03244 
0.10513 0.91440 0.03243 
0.10774 0.91440 0.03240 
0.11048 0.91440 0.03237 
0.11335 0.91440 0.03232 
0.11637 0.91440 0.03226 
0.11954 0.91440 0.03218 
0.12287 0.91440 0.03209 
0.12636 0.91440 0.03198 
0.13003 0.91440 0.03184 
0.13382 0.91440 0.03169 
0.13760 0.91440 0.03152 
0.14138 0.91440 0.03134 
0.14517 0.91440 0.03114 
0.14895 0.91440 0.03092 
0.15273 0.91440 0.03070 
0.15651 0.91440 0.03046 
0.16029 0.91440 0.03021 
0.16406 0.91440 0.02994 
0.16784 0.91440 0.02967 
0.17162 0.91440 0.02938 
0.17539 0.91440 0.02908 
0.17917 0.91440 0.02877 
0.18294 0.91440 0.02845 
0.18671 0.91440 0.02812 
0.19049 0.91440 0.02778 
0.19426 0.91440 0.02742 
0.19803 0.91440 0.02706 
0.20180 0.91440 0.02670 
0.20557 0.91440 0.02632 
0.20933 0.91440 0.02593 
0.21310 0.91440 0.02553 
0.21686 0.91440 0.02513 
0.22063 0.91440 0.02472 
0.22439 0.91440 0.02430 
0.22816 0.91440 0.02387 
0.23192 0.91440 0.02344 
0.23568 0.91440 0.02299 
0.23944 0.91440 0.02254 
0.24320 0.91440 0.02209 
0.24696 0.91440 0.02163 
0.25072 0.91440 0.02116 
0.25447 0.91440 0.02068 
0.25823 0.91440 0.02020 
0.26199 0.91440 0.01971 
0.26574 0.91440 0.01921 
0.26950 0.91440 0.01871 
0.27325 0.91440 0.01821 
0.27700 0.91440 0.01770 
0.28075 0.91440 0.01718 
0.28450 0.91440 0.01666 
0.28825 0.91440 0.01613 
0.29200 0.91440 0.01559 
0.29575 0.91440 0.01506 
0.29950 0.91440 0.01451 
0.30325 0.91440 0.01396 
0.30699 0.91440 0.01341 
0.31074 0.91440 0.01285 
0.31449 0.91440 0.01229 
0.31823 0.91440 0.01172 
0.32197 0.91440 0.01115 
0.32572 0.91440 0.01058 
0.32946 0.91440 0.01000 
0.33320 0.91440 0.00941 
0.33694 0.91440 0.00882 
0.34068 0.91440 0.00823 
0.34442 0.91440 0.00764 
0.34816 0.91440 0.00704 
0.35190 0.91440 0.00643 
0.35564 0.91440 0.00582 
0.35938 0.91440 0.00521 
0.36311 0.91440 0.00459 
0.36685 0.91440 0.00397 
0.37059 0.91440 0.00335 
0.37432 0.91440 0.00272 
0.37806 0.91440 0.00209 
0.38179 0.91440 0.00146 
0.38552 0.91440 0.00082 
0.38926 0.91440 0.00018 
0.39299 0.91440 -0.00047 
0.39672 0.91440 -0.00111 
0.40045 0.91440 -0.00177 
0.40418 0.91440 -0.00242 
0.40791 0.91440 -0.00308 
0.41164 0.91440 -0.00374 
0.41537 0.91440 -0.00441 
0.41909 0.91440 -0.00508 
0.42282 0.91440 -0.00575 
0.42655 0.91440 -0.00643 
0.43027 0.91440 -0.00711 
0.43400 0.91440 -0.00779 
0.43772 0.91440 -0.00848 
0.44145 0.91440 -0.00917 
0.44517 0.91440 -0.00986 
0.44889 0.91440 -0.01056 
0.45261 0.91440 -0.01126 
0.45634 0.91440 -0.01196 
0.46006 0.91440 -0.01267 
0.46378 0.91440 -0.01338 
0.46749 0.91440 -0.01410 
0.47121 0.91440 -0.01482 
0.47493 0.91440 -0.01554 
0.47865 0.91440 -0.01627 
0.48236 0.91440 -0.01699 
0.48608 0.91440 -0.01773 
0.48979 0.91440 -0.01847 
0.49351 0.91440 -0.01921 
0.49722 0.91440 -0.01995 
0.50093 0.91440 -0.02070 
0.50465 0.91440 -0.02145 
0.50836 0.91440 -0.02221 
0.51207 0.91440 -0.02297 
0.51578 0.91440 -0.02374 
0.51948 0.91440 -0.02451 
0.52319 0.91440 -0.02528 
0.52689 0.91440 -0.02606 
0.52921 0.91440 -0.02654 
0.53065 0.91440 -0.02685 
0.53156 0.91440 -0.02704 
0.53212 0.91440 -0.02716 
0.53247 0.91440 -0.02724 
0.53246 0.91440 -0.02735 
0.53246 0.91440 -0.02746 
0.53245 0.91440 -0.02757 
0.53244 0.91440 -0.02768 
0.53243 0.91440 -0.02779 
0.53243 0.91440 -0.02791 

ZONE T="SLICE_Y_0p9144_BINS03_KS_0p5mm_SINGLE_LAYER"
0.53243 0.91440 -0.02791 
0.53242 0.91440 -0.02802 
0.53241 0.91440 -0.02813 
0.53240 0.91440 -0.02824 
0.53239 0.91440 -0.02835 
0.53239 0.91440 -0.02846 
0.53238 0.91440 -0.02858 
0.53202 0.91440 -0.02860 
0.53144 0.91440 -0.02864 
0.53052 0.91440 -0.02871 
0.52905 0.91440 -0.02881 
0.52669 0.91440 -0.02897 
0.52292 0.91440 -0.02922 
0.51916 0.91440 -0.02947 
0.51540 0.91440 -0.02972 
0.51164 0.91440 -0.02996 
0.50788 0.91440 -0.03019 
0.50412 0.91440 -0.03042 
0.50036 0.91440 -0.03065 
0.49660 0.91440 -0.03088 
0.49284 0.91440 -0.03110 
0.48907 0.91440 -0.03131 
0.48531 0.91440 -0.03152 
0.48155 0.91440 -0.03173 
0.47779 0.91440 -0.03194 
0.47403 0.91440 -0.03214 
0.47027 0.91440 -0.03233 
0.46650 0.91440 -0.03253 
0.46274 0.91440 -0.03272 
0.45898 0.91440 -0.03290 
0.45521 0.91440 -0.03309 
0.45145 0.91440 -0.03327 
0.44769 0.91440 -0.03344 
0.44392 0.91440 -0.03361 
0.44016 0.91440 -0.03378 
0.43640 0.91440 -0.03395 
0.43263 0.91440 -0.03411 
0.42887 0.91440 -0.03426 
0.42510 0.91440 -0.03442 
0.42134 0.91440 -0.03457 
0.41758 0.91440 -0.03472 
0.41381 0.91440 -0.03486 
0.41005 0.91440 -0.03500 
0.40628 0.91440 -0.03514 
0.40252 0.91440 -0.03527 
0.39875 0.91440 -0.03540 
0.39499 0.91440 -0.03553 
0.39122 0.91440 -0.03565 
0.38746 0.91440 -0.03577 
0.38369 0.91440 -0.03589 
0.37992 0.91440 -0.03600 
0.37616 0.91440 -0.03611 
0.37239 0.91440 -0.03621 
0.36863 0.91440 -0.03631 
0.36486 0.91440 -0.03641 
0.36109 0.91440 -0.03651 
0.35733 0.91440 -0.03660 
0.35356 0.91440 -0.03668 
0.34979 0.91440 -0.03677 
0.34603 0.91440 -0.03684 
0.34226 0.91440 -0.03692 
0.33849 0.91440 -0.03699 
0.33473 0.91440 -0.03706 
0.33096 0.91440 -0.03712 
0.32719 0.91440 -0.03718 
0.32343 0.91440 -0.03723 
0.31966 0.91440 -0.03728 
0.31589 0.91440 -0.03733 
0.31213 0.91440 -0.03737 
0.30836 0.91440 -0.03741 
0.30459 0.91440 -0.03744 
0.30082 0.91440 -0.03747 
0.29706 0.91440 -0.03749 
0.29329 0.91440 -0.03751 
0.28952 0.91440 -0.03752 
0.28575 0.91440 -0.03753 
0.28199 0.91440 -0.03753 
0.27822 0.91440 -0.03753 
0.27445 0.91440 -0.03752 
0.27068 0.91440 -0.03751 
0.26692 0.91440 -0.03749 
0.26315 0.91440 -0.03746 
0.25938 0.91440 -0.03743 
0.25562 0.91440 -0.03740 
0.25185 0.91440 -0.03735 
0.24808 0.91440 -0.03730 
0.24431 0.91440 -0.03725 
0.24055 0.91440 -0.03719 
0.23678 0.91440 -0.03712 
0.23301 0.91440 -0.03704 
0.22925 0.91440 -0.03696 
0.22548 0.91440 -0.03687 
0.22172 0.91440 -0.03678 
0.21795 0.91440 -0.03667 
0.21418 0.91440 -0.03656 
0.21042 0.91440 -0.03644 
0.20665 0.91440 -0.03631 
0.20289 0.91440 -0.03618 
0.19912 0.91440 -0.03603 
0.19536 0.91440 -0.03588 
0.19160 0.91440 -0.03571 
0.18783 0.91440 -0.03554 
0.18407 0.91440 -0.03536 
0.18031 0.91440 -0.03517 
0.17654 0.91440 -0.03497 
0.17278 0.91440 -0.03475 
0.16902 0.91440 -0.03453 
0.16526 0.91440 -0.03430 
0.16150 0.91440 -0.03405 
0.15774 0.91440 -0.03380 
0.15399 0.91440 -0.03353 
0.15023 0.91440 -0.03325 
0.14647 0.91440 -0.03295 
0.14272 0.91440 -0.03265 
0.13896 0.91440 -0.03233 
0.13521 0.91440 -0.03201 
0.13146 0.91440 -0.03169 
0.12770 0.91440 -0.03137 
0.12395 0.91440 -0.03103 
0.12033 0.91440 -0.03068 
0.11687 0.91440 -0.03035 
0.11359 0.91440 -0.03001 
0.11046 0.91440 -0.02968 
0.10752 0.91440 -0.02936 
0.10495 0.91440 -0.03030 
0.10233 0.91440 -0.03179 
0.09916 0.91440 -0.03211 
0.09646 0.91440 -0.03191 
0.09408 0.91440 -0.03165 
0.09183 0.91440 -0.03134 
0.08971 0.91440 -0.03103 
0.08769 0.91440 -0.03073 
0.08577 0.91440 -0.03045 
0.08385 0.91440 -0.03015 
0.08192 0.91440 -0.02985 
0.08000 0.91440 -0.02954 
0.07808 0.91440 -0.02922 
0.07616 0.91440 -0.02889 
0.07425 0.91440 -0.02855 
0.07233 0.91440 -0.02821 
0.07041 0.91440 -0.02786 
0.06850 0.91440 -0.02750 
0.06658 0.91440 -0.02714 
0.06467 0.91440 -0.02676 
0.06276 0.91440 -0.02637 
0.06085 0.91440 -0.02598 
0.05894 0.91440 -0.02558 
0.05703 0.91440 -0.02516 
0.05512 0.91440 -0.02473 
0.05322 0.91440 -0.02430 
0.05131 0.91440 -0.02385 
0.04941 0.91440 -0.02339 
0.04751 0.91440 -0.02291 
0.04561 0.91440 -0.02242 
0.04371 0.91440 -0.02191 
0.04182 0.91440 -0.02139 
0.03993 0.91440 -0.02086 
0.03804 0.91440 -0.02030 
0.03616 0.91440 -0.01973 
0.03427 0.91440 -0.01914 
0.03239 0.91440 -0.01852 
0.03052 0.91440 -0.01787 
0.02865 0.91440 -0.01720 
0.02679 0.91440 -0.01650 
0.02494 0.91440 -0.01577 
0.02309 0.91440 -0.01500 
0.02125 0.91440 -0.01418 
0.01944 0.91440 -0.01333 
0.01763 0.91440 -0.01243 
0.01584 0.91440 -0.01148 
0.01408 0.91440 -0.01047 
0.01234 0.91440 -0.00939 
0.01065 0.91440 -0.00825 
0.00899 0.91440 -0.00704 
0.00738 0.91440 -0.00575 
0.00583 0.91440 -0.00438 
0.00436 0.91440 -0.00294 
0.00310 0.91440 -0.00155 
0.00202 0.91440 -0.00021 
0.00110 0.91440 0.00103 
0.00031 0.91440 0.00217 
-0.00042 0.91440 0.00313 
-0.00118 0.91440 0.00391 
-0.00195 0.91440 0.00453 
-0.00280 0.91440 0.00512 
-0.00377 0.91440 0.00590 
-0.00483 0.91440 0.00697 
-0.00589 0.91440 0.00841 
-0.00684 0.91440 0.01028 
-0.00749 0.91440 0.01252 
-0.00773 0.91440 0.01506 
-0.00745 0.91440 0.01779 
-0.00660 0.91440 0.02066 
-0.00500 0.91440 0.02332 
-0.00263 0.91440 0.02586 
0.00066 0.91440 0.02768 
0.00498 0.91440 0.02848 
0.01060 0.91440 0.02721 
0.01264 0.91440 0.02373 
0.01263 0.91440 0.02228 
0.01409 0.91440 0.02268 
0.01597 0.91440 0.02311 
0.01784 0.91440 0.02356 
0.01969 0.91440 0.02407 
0.02153 0.91440 0.02462 
0.02338 0.91440 0.02514 
0.02523 0.91440 0.02563 
0.02710 0.91440 0.02609 
0.02897 0.91440 0.02652 
0.03085 0.91440 0.02692 
0.03273 0.91440 0.02730 
0.03461 0.91440 0.02767 
0.03650 0.91440 0.02801 
0.03840 0.91440 0.02833 
0.04029 0.91440 0.02863 
0.04219 0.91440 0.02892 
0.04409 0.91440 0.02919 
0.04599 0.91440 0.02944 
0.04790 0.91440 0.02969 
0.04980 0.91440 0.02991 
0.05171 0.91440 0.03013 
0.05362 0.91440 0.03033 
0.05553 0.91440 0.03052 
0.05744 0.91440 0.03070 
0.05936 0.91440 0.03087 
0.06127 0.91440 0.03103 
0.06318 0.91440 0.03118 
0.06510 0.91440 0.03132 
0.06701 0.91440 0.03144 
0.06893 0.91440 0.03156 
0.07085 0.91440 0.03167 
0.07276 0.91440 0.03178 
0.07468 0.91440 0.03187 
0.07660 0.91440 0.03196 
0.07852 0.91440 0.03204 
0.08044 0.91440 0.03211 
0.08235 0.91440 0.03217 
0.08427 0.91440 0.03223 
0.08619 0.91440 0.03228 
0.08811 0.91440 0.03232 
0.09003 0.91440 0.03235 
0.09189 0.91440 0.03238 
0.09383 0.91440 0.03241 
0.09588 0.91440 0.03242 
0.09802 0.91440 0.03244 
0.10028 0.91440 0.03244 
0.10264 0.91440 0.03244 
0.10513 0.91440 0.03243 
0.10774 0.91440 0.03240 
0.11048 0.91440 0.03237 
0.11335 0.91440 0.03232 
0.11637 0.91440 0.03226 
0.11954 0.91440 0.03218 
0.12287 0.91440 0.03209 
0.12636 0.91440 0.03198 
0.13003 0.91440 0.03184 
0.13382 0.91440 0.03169 
0.13760 0.91440 0.03152 
0.14138 0.91440 0.03134 
0.14517 0.91440 0.03114 
0.14895 0.91440 0.03092 
0.15273 0.91440 0.03070 
0.15651 0.91440 0.03046 
0.16029 0.91440 0.03021 
0.16406 0.91440 0.02994 
0.16784 0.91440 0.02967 
0.17162 0.91440 0.02938 
0.17539 0.91440 0.02908 
0.17917 0.91440 0.02877 
0.18294 0.91440 0.02845 
0.18671 0.91440 0.02812 
0.19049 0.91440 0.02778 
0.19426 0.91440 0.02742 
0.19803 0.91440 0.02706 
0.20180 0.91440 0.02670 
0.20557 0.91440 0.02632 
0.20933 0.91440 0.02593 
0.21310 0.91440 0.02553 
0.21686 0.91440 0.02513 
0.22063 0.91440 0.02472 
0.22439 0.91440 0.02430 
0.22816 0.91440 0.02387 
0.23192 0.91440 0.02344 
0.23568 0.91440 0.02299 
0.23944 0.91440 0.02254 
0.24320 0.91440 0.02209 
0.24696 0.91440 0.02163 
0.25072 0.91440 0.02116 
0.25447 0.91440 0.02068 
0.25823 0.91440 0.02020 
0.26199 0.91440 0.01971 
0.26574 0.91440 0.01921 
0.26950 0.91440 0.01871 
0.27325 0.91440 0.01821 
0.27700 0.91440 0.01770 
0.28075 0.91440 0.01718 
0.28450 0.91440 0.01666 
0.28825 0.91440 0.01613 
0.29200 0.91440 0.01559 
0.29575 0.91440 0.01506 
0.29950 0.91440 0.01451 
0.30325 0.91440 0.01396 
0.30699 0.91440 0.01341 
0.31074 0.91440 0.01285 
0.31449 0.91440 0.01229 
0.31823 0.91440 0.01172 
0.32197 0.91440 0.01115 
0.32572 0.91440 0.01058 
0.32946 0.91440 0.01000 
0.33320 0.91440 0.00941 
0.33694 0.91440 0.00882 
0.34068 0.91440 0.00823 
0.34442 0.91440 0.00764 
0.34816 0.91440 0.00704 
0.35190 0.91440 0.00643 
0.35564 0.91440 0.00582 
0.35938 0.91440 0.00521 
0.36311 0.91440 0.00459 
0.36685 0.91440 0.00397 
0.37059 0.91440 0.00335 
0.37432 0.91440 0.00272 
0.37806 0.91440 0.00209 
0.38179 0.91440 0.00146 
0.38552 0.91440 0.00082 
0.38926 0.91440 0.00018 
0.39299 0.91440 -0.00047 
0.39672 0.91440 -0.00111 
0.40045 0.91440 -0.00177 
0.40418 0.91440 -0.00242 
0.40791 0.91440 -0.00308 
0.41164 0.91440 -0.00374 
0.41537 0.91440 -0.00441 
0.41909 0.91440 -0.00508 
0.42282 0.91440 -0.00575 
0.42655 0.91440 -0.00643 
0.43027 0.91440 -0.00711 
0.43400 0.91440 -0.00779 
0.43772 0.91440 -0.00848 
0.44145 0.91440 -0.00917 
0.44517 0.91440 -0.00986 
0.44889 0.91440 -0.01056 
0.45261 0.91440 -0.01126 
0.45634 0.91440 -0.01196 
0.46006 0.91440 -0.01267 
0.46378 0.91440 -0.01338 
0.46749 0.91440 -0.01410 
0.47121 0.91440 -0.01482 
0.47493 0.91440 -0.01554 
0.47865 0.91440 -0.01627 
0.48236 0.91440 -0.01699 
0.48608 0.91440 -0.01773 
0.48979 0.91440 -0.01847 
0.49351 0.91440 -0.01921 
0.49722 0.91440 -0.01995 
0.50093 0.91440 -0.02070 
0.50465 0.91440 -0.02145 
0.50836 0.91440 -0.02221 
0.51207 0.91440 -0.02297 
0.51578 0.91440 -0.02374 
0.51948 0.91440 -0.02451 
0.52319 0.91440 -0.02528 
0.52689 0.91440 -0.02606 
0.52921 0.91440 -0.02654 
0.53065 0.91440 -0.02685 
0.53156 0.91440 -0.02704 
0.53212 0.91440 -0.02716 
0.53247 0.91440 -0.02724 
0.53246 0.91440 -0.02735 
0.53246 0.91440 -0.02746 
0.53245 0.91440 -0.02757 
0.53244 0.91440 -0.02768 
0.53243 0.91440 -0.02779 
0.53243 0.91440 -0.02791 

ZONE T="SLICE_Y_0p9144_BINS07_KS_0p5mm_SINGLE_LAYER"
0.53243 0.91440 -0.02791 
0.53242 0.91440 -0.02802 
0.53241 0.91440 -0.02813 
0.53240 0.91440 -0.02824 
0.53239 0.91440 -0.02835 
0.53239 0.91440 -0.02846 
0.53238 0.91440 -0.02858 
0.53202 0.91440 -0.02860 
0.53144 0.91440 -0.02864 
0.53052 0.91440 -0.02871 
0.52905 0.91440 -0.02881 
0.52669 0.91440 -0.02897 
0.52292 0.91440 -0.02922 
0.51916 0.91440 -0.02947 
0.51540 0.91440 -0.02972 
0.51164 0.91440 -0.02996 
0.50788 0.91440 -0.03019 
0.50412 0.91440 -0.03042 
0.50036 0.91440 -0.03065 
0.49660 0.91440 -0.03088 
0.49284 0.91440 -0.03110 
0.48907 0.91440 -0.03131 
0.48531 0.91440 -0.03152 
0.48155 0.91440 -0.03173 
0.47779 0.91440 -0.03194 
0.47403 0.91440 -0.03214 
0.47027 0.91440 -0.03233 
0.46650 0.91440 -0.03253 
0.46274 0.91440 -0.03272 
0.45898 0.91440 -0.03290 
0.45521 0.91440 -0.03309 
0.45145 0.91440 -0.03327 
0.44769 0.91440 -0.03344 
0.44392 0.91440 -0.03361 
0.44016 0.91440 -0.03378 
0.43640 0.91440 -0.03395 
0.43263 0.91440 -0.03411 
0.42887 0.91440 -0.03426 
0.42510 0.91440 -0.03442 
0.42134 0.91440 -0.03457 
0.41758 0.91440 -0.03472 
0.41381 0.91440 -0.03486 
0.41005 0.91440 -0.03500 
0.40628 0.91440 -0.03514 
0.40252 0.91440 -0.03527 
0.39875 0.91440 -0.03540 
0.39499 0.91440 -0.03553 
0.39122 0.91440 -0.03565 
0.38746 0.91440 -0.03577 
0.38369 0.91440 -0.03589 
0.37992 0.91440 -0.03600 
0.37616 0.91440 -0.03611 
0.37239 0.91440 -0.03621 
0.36863 0.91440 -0.03631 
0.36486 0.91440 -0.03641 
0.36109 0.91440 -0.03651 
0.35733 0.91440 -0.03660 
0.35356 0.91440 -0.03668 
0.34979 0.91440 -0.03677 
0.34603 0.91440 -0.03684 
0.34226 0.91440 -0.03692 
0.33849 0.91440 -0.03699 
0.33473 0.91440 -0.03706 
0.33096 0.91440 -0.03712 
0.32719 0.91440 -0.03718 
0.32343 0.91440 -0.03723 
0.31966 0.91440 -0.03728 
0.31589 0.91440 -0.03733 
0.31213 0.91440 -0.03737 
0.30836 0.91440 -0.03741 
0.30459 0.91440 -0.03744 
0.30082 0.91440 -0.03747 
0.29706 0.91440 -0.03749 
0.29329 0.91440 -0.03751 
0.28952 0.91440 -0.03752 
0.28575 0.91440 -0.03753 
0.28199 0.91440 -0.03753 
0.27822 0.91440 -0.03753 
0.27445 0.91440 -0.03752 
0.27068 0.91440 -0.03751 
0.26692 0.91440 -0.03749 
0.26315 0.91440 -0.03746 
0.25938 0.91440 -0.03743 
0.25562 0.91440 -0.03740 
0.25185 0.91440 -0.03735 
0.24808 0.91440 -0.03730 
0.24431 0.91440 -0.03725 
0.24055 0.91440 -0.03719 
0.23678 0.91440 -0.03712 
0.23301 0.91440 -0.03704 
0.22925 0.91440 -0.03696 
0.22548 0.91440 -0.03687 
0.22172 0.91440 -0.03678 
0.21795 0.91440 -0.03667 
0.21418 0.91440 -0.03656 
0.21042 0.91440 -0.03644 
0.20665 0.91440 -0.03631 
0.20289 0.91440 -0.03618 
0.19912 0.91440 -0.03603 
0.19536 0.91440 -0.03588 
0.19160 0.91440 -0.03571 
0.18783 0.91440 -0.03554 
0.18407 0.91440 -0.03536 
0.18031 0.91440 -0.03517 
0.17654 0.91440 -0.03497 
0.17278 0.91440 -0.03475 
0.16902 0.91440 -0.03453 
0.16526 0.91440 -0.03430 
0.16150 0.91440 -0.03405 
0.15774 0.91440 -0.03380 
0.15399 0.91440 -0.03353 
0.15023 0.91440 -0.03325 
0.14647 0.91440 -0.03295 
0.14272 0.91440 -0.03265 
0.13896 0.91440 -0.03233 
0.13521 0.91440 -0.03202 
0.13146 0.91440 -0.03170 
0.12770 0.91440 -0.03138 
0.12395 0.91440 -0.03104 
0.12032 0.91440 -0.03070 
0.11687 0.91440 -0.03036 
0.11359 0.91440 -0.03002 
0.11046 0.91440 -0.02969 
0.10754 0.91440 -0.02939 
0.10513 0.91440 -0.03083 
0.10215 0.91440 -0.03234 
0.09895 0.91440 -0.03214 
0.09644 0.91440 -0.03197 
0.09406 0.91440 -0.03165 
0.09183 0.91440 -0.03134 
0.08971 0.91440 -0.03103 
0.08769 0.91440 -0.03074 
0.08577 0.91440 -0.03045 
0.08385 0.91440 -0.03016 
0.08192 0.91440 -0.02985 
0.08000 0.91440 -0.02954 
0.07808 0.91440 -0.02923 
0.07616 0.91440 -0.02890 
0.07425 0.91440 -0.02857 
0.07233 0.91440 -0.02823 
0.07041 0.91440 -0.02788 
0.06850 0.91440 -0.02752 
0.06658 0.91440 -0.02716 
0.06467 0.91440 -0.02679 
0.06276 0.91440 -0.02640 
0.06084 0.91440 -0.02601 
0.05893 0.91440 -0.02561 
0.05702 0.91440 -0.02520 
0.05512 0.91440 -0.02477 
0.05321 0.91440 -0.02433 
0.05130 0.91440 -0.02388 
0.04940 0.91440 -0.02342 
0.04750 0.91440 -0.02294 
0.04560 0.91440 -0.02244 
0.04370 0.91440 -0.02194 
0.04181 0.91440 -0.02141 
0.03992 0.91440 -0.02087 
0.03804 0.91440 -0.02032 
0.03615 0.91440 -0.01974 
0.03427 0.91440 -0.01914 
0.03239 0.91440 -0.01852 
0.03051 0.91440 -0.01787 
0.02865 0.91440 -0.01719 
0.02679 0.91440 -0.01648 
0.02494 0.91440 -0.01575 
0.02309 0.91440 -0.01497 
0.02126 0.91440 -0.01415 
0.01945 0.91440 -0.01330 
0.01765 0.91440 -0.01240 
0.01586 0.91440 -0.01145 
0.01410 0.91440 -0.01045 
0.01236 0.91440 -0.00937 
0.01066 0.91440 -0.00823 
0.00900 0.91440 -0.00702 
0.00739 0.91440 -0.00573 
0.00585 0.91440 -0.00435 
0.00438 0.91440 -0.00292 
0.00312 0.91440 -0.00153 
0.00204 0.91440 -0.00020 
0.00112 0.91440 0.00105 
0.00033 0.91440 0.00219 
-0.00040 0.91440 0.00315 
-0.00115 0.91440 0.00392 
-0.00193 0.91440 0.00455 
-0.00278 0.91440 0.00513 
-0.00375 0.91440 0.00590 
-0.00481 0.91440 0.00697 
-0.00587 0.91440 0.00841 
-0.00682 0.91440 0.01027 
-0.00747 0.91440 0.01252 
-0.00772 0.91440 0.01505 
-0.00745 0.91440 0.01778 
-0.00660 0.91440 0.02064 
-0.00501 0.91440 0.02329 
-0.00263 0.91440 0.02586 
0.00068 0.91440 0.02766 
0.00505 0.91440 0.02848 
0.01067 0.91440 0.02711 
0.01261 0.91440 0.02373 
0.01265 0.91440 0.02241 
0.01408 0.91440 0.02274 
0.01596 0.91440 0.02316 
0.01783 0.91440 0.02358 
0.01969 0.91440 0.02407 
0.02153 0.91440 0.02462 
0.02338 0.91440 0.02514 
0.02523 0.91440 0.02563 
0.02710 0.91440 0.02609 
0.02897 0.91440 0.02652 
0.03085 0.91440 0.02692 
0.03273 0.91440 0.02730 
0.03461 0.91440 0.02767 
0.03650 0.91440 0.02801 
0.03840 0.91440 0.02833 
0.04029 0.91440 0.02863 
0.04219 0.91440 0.02892 
0.04409 0.91440 0.02919 
0.04599 0.91440 0.02944 
0.04790 0.91440 0.02969 
0.04980 0.91440 0.02991 
0.05171 0.91440 0.03013 
0.05362 0.91440 0.03033 
0.05553 0.91440 0.03052 
0.05744 0.91440 0.03070 
0.05936 0.91440 0.03087 
0.06127 0.91440 0.03103 
0.06318 0.91440 0.03118 
0.06510 0.91440 0.03132 
0.06701 0.91440 0.03144 
0.06893 0.91440 0.03156 
0.07085 0.91440 0.03167 
0.07276 0.91440 0.03178 
0.07468 0.91440 0.03187 
0.07660 0.91440 0.03196 
0.07852 0.91440 0.03204 
0.08044 0.91440 0.03211 
0.08235 0.91440 0.03217 
0.08427 0.91440 0.03223 
0.08619 0.91440 0.03228 
0.08811 0.91440 0.03232 
0.09003 0.91440 0.03235 
0.09189 0.91440 0.03238 
0.09383 0.91440 0.03241 
0.09588 0.91440 0.03242 
0.09802 0.91440 0.03244 
0.10028 0.91440 0.03244 
0.10264 0.91440 0.03244 
0.10513 0.91440 0.03243 
0.10774 0.91440 0.03240 
0.11048 0.91440 0.03237 
0.11335 0.91440 0.03232 
0.11637 0.91440 0.03226 
0.11954 0.91440 0.03218 
0.12287 0.91440 0.03209 
0.12636 0.91440 0.03198 
0.13003 0.91440 0.03184 
0.13382 0.91440 0.03169 
0.13760 0.91440 0.03152 
0.14138 0.91440 0.03134 
0.14517 0.91440 0.03114 
0.14895 0.91440 0.03092 
0.15273 0.91440 0.03070 
0.15651 0.91440 0.03046 
0.16029 0.91440 0.03021 
0.16406 0.91440 0.02994 
0.16784 0.91440 0.02967 
0.17162 0.91440 0.02938 
0.17539 0.91440 0.02908 
0.17917 0.91440 0.02877 
0.18294 0.91440 0.02845 
0.18671 0.91440 0.02812 
0.19049 0.91440 0.02778 
0.19426 0.91440 0.02742 
0.19803 0.91440 0.02706 
0.20180 0.91440 0.02670 
0.20557 0.91440 0.02632 
0.20933 0.91440 0.02593 
0.21310 0.91440 0.02553 
0.21686 0.91440 0.02513 
0.22063 0.91440 0.02472 
0.22439 0.91440 0.02430 
0.22816 0.91440 0.02387 
0.23192 0.91440 0.02344 
0.23568 0.91440 0.02299 
0.23944 0.91440 0.02254 
0.24320 0.91440 0.02209 
0.24696 0.91440 0.02163 
0.25072 0.91440 0.02116 
0.25447 0.91440 0.02068 
0.25823 0.91440 0.02020 
0.26199 0.91440 0.01971 
0.26574 0.91440 0.01921 
0.26950 0.91440 0.01871 
0.27325 0.91440 0.01821 
0.27700 0.91440 0.01770 
0.28075 0.91440 0.01718 
0.28450 0.91440 0.01666 
0.28825 0.91440 0.01613 
0.29200 0.91440 0.01559 
0.29575 0.91440 0.01506 
0.29950 0.91440 0.01451 
0.30325 0.91440 0.01396 
0.30699 0.91440 0.01341 
0.31074 0.91440 0.01285 
0.31449 0.91440 0.01229 
0.31823 0.91440 0.01172 
0.32197 0.91440 0.01115 
0.32572 0.91440 0.01058 
0.32946 0.91440 0.01000 
0.33320 0.91440 0.00941 
0.33694 0.91440 0.00882 
0.34068 0.91440 0.00823 
0.34442 0.91440 0.00764 
0.34816 0.91440 0.00704 
0.35190 0.91440 0.00643 
0.35564 0.91440 0.00582 
0.35938 0.91440 0.00521 
0.36311 0.91440 0.00459 
0.36685 0.91440 0.00397 
0.37059 0.91440 0.00335 
0.37432 0.91440 0.00272 
0.37806 0.91440 0.00209 
0.38179 0.91440 0.00146 
0.38552 0.91440 0.00082 
0.38926 0.91440 0.00018 
0.39299 0.91440 -0.00047 
0.39672 0.91440 -0.00111 
0.40045 0.91440 -0.00177 
0.40418 0.91440 -0.00242 
0.40791 0.91440 -0.00308 
0.41164 0.91440 -0.00374 
0.41537 0.91440 -0.00441 
0.41909 0.91440 -0.00508 
0.42282 0.91440 -0.00575 
0.42655 0.91440 -0.00643 
0.43027 0.91440 -0.00711 
0.43400 0.91440 -0.00779 
0.43772 0.91440 -0.00848 
0.44145 0.91440 -0.00917 
0.44517 0.91440 -0.00986 
0.44889 0.91440 -0.01056 
0.45261 0.91440 -0.01126 
0.45634 0.91440 -0.01196 
0.46006 0.91440 -0.01267 
0.46378 0.91440 -0.01338 
0.46749 0.91440 -0.01410 
0.47121 0.91440 -0.01482 
0.47493 0.91440 -0.01554 
0.47865 0.91440 -0.01627 
0.48236 0.91440 -0.01699 