#+++++++++++++++++++++++++++++++++++++++++++++++++++++++++++++++++++++++++++++++++++++++++++++++++++++++++++++++++++++++++++++++++
#
#   IPW-3 Cut/Slice DATA SUBMITTAL FORM for Test Case NACA0012_AE3932, May 18th 2026
#
#       NOMENCLATURE:
#                  X [m]:  X-coordinate of the surface (clean for reference)
#                  Y [m]:  Y-coordinate of the surface (clean for reference)
#                  Z [m]:  Z-coordinate of the surface (clean for reference)
#                 Cp [-]:  Pressure coefficient
#            HTC [W/m2K]:  Convective Heat Transfer Coefficient (on the rough surface)
#               Beta [-]:  Collection efficiency
#                 Ts [K]:  Surface temperature
#                 FF [-]:  Freezing fraction
#                  k [m]:  Surface roughness height if variable (OPTIONAL)
#         RhoIce [kg/m3]:  Ice density (OPTIONAL)
#      HTC_CLEAN [W/m2K]:  Convective Heat Transfer Coefficient on the surface without roughness (OPTIONAL)
#
#                XXmm:  Roughness height used for the case, in mm.
#                       In the zone name, use the format KS_XXmm.
#                       For example, if k_s = 1.5 mm, use KS_1p5mm. 
#                       For Variable roughness, use KS_VAR
#
#    FLOW CONDITIONS:
#                                   AOA: 4.0 deg
#                           Mach Number: 0.3151 [-]
#       Mean aerodynamic chord (M.A.C.): 0.5334 [m]
#                       Reynolds Number: 3.9795 million (based on MAC)
#                       Freestream Temp: 267.55 [K]
#                        Reference area: 0.97548 [m2]
#               Moment Reference Center: 0.13335, 0, 0 [m] (X, Y, Z)
#
#    ICING CONDITIONS:
#                           Icing Time: 420 [s]
#                                  LWC: 0.55 [g/m3]
#                                  MVD: 20 [μm]
#
#    ICING CONDITIONS:
#                           Icing Time: 420 [s]
#                                  LWC: 0.55 [g/m3]
#                                  MVD: 20 [μm]
#
#              NOTES: 1. Please use at least 5 decimal places in the numerical values
#                     2. If data are NOT provided, please fill data fields with a numerical value of "-999" 
#
#++++++++++++++++++++++++++++++++++++++++++++++++++++++++++++++++++++++++++++++++++++++++++++++++++++++++++++++++++++

                                                    <- Optional ->                 
VARIABLES = "X" "Y" "Z" "Cp" "HTC" "Beta" "Ts" "FF" "k" "RhoIce" "HTC_CLEAN"

ZONE T="SLICE_Y_0p9144_BINS01_KS_0p5mm_CUTDATA"
0.53242 0.91440 -0.02798 0.05195 121.84316 0.00000 272.08850 0.00000 -999.00000 680.00000 -999.00000 
0.53241 0.91440 -0.02813 0.04571 108.74195 0.00000 272.07115 0.00000 -999.00000 680.00000 -999.00000 
0.53240 0.91440 -0.02828 0.03067 87.39350 0.00000 272.03081 0.00000 -999.00000 680.00000 -999.00000 
0.53239 0.91440 -0.02843 -0.04275 103.69763 0.00000 272.00658 0.00000 -999.00000 680.00000 -999.00000 
0.53238 0.91440 -0.02858 -0.10605 132.58138 0.00000 272.01001 0.00000 -999.00000 680.00000 -999.00000 
0.53086 0.91440 -0.02868 0.13626 271.15006 0.00000 272.19713 0.00000 -999.00000 680.00000 -999.00000 
0.52843 0.91440 -0.02885 0.09994 279.93198 0.00000 272.17868 0.00000 -999.00000 680.00000 -999.00000 
0.52453 0.91440 -0.02911 0.09478 273.16103 0.00000 272.17459 0.00000 -999.00000 680.00000 -999.00000 
0.51931 0.91440 -0.02946 0.08573 273.84628 0.00000 272.16967 0.00000 -999.00000 680.00000 -999.00000 
0.51409 0.91440 -0.02980 0.07819 276.99150 0.00000 272.16604 0.00000 -999.00000 680.00000 -999.00000 
0.50887 0.91440 -0.03013 0.07067 280.81184 0.00000 272.16252 0.00000 -999.00000 680.00000 -999.00000 
0.50365 0.91440 -0.03045 0.06359 284.63552 0.00000 272.15924 0.00000 -999.00000 680.00000 -999.00000 
0.49843 0.91440 -0.03077 0.05684 288.14049 0.00000 272.15606 0.00000 -999.00000 680.00000 -999.00000 
0.49321 0.91440 -0.03107 0.05043 291.29577 0.00000 272.15300 0.00000 -999.00000 680.00000 -999.00000 
0.48799 0.91440 -0.03137 0.04435 294.18373 0.00000 272.15006 0.00000 -999.00000 680.00000 -999.00000 
0.48277 0.91440 -0.03166 0.03860 296.88661 0.00000 272.14727 0.00000 -999.00000 680.00000 -999.00000 
0.47754 0.91440 -0.03195 0.03313 299.44827 0.00000 272.14461 0.00000 -999.00000 680.00000 -999.00000 
0.47232 0.91440 -0.03223 0.02794 301.89057 0.00000 272.14207 0.00000 -999.00000 680.00000 -999.00000 
0.46710 0.91440 -0.03250 0.02299 304.22235 0.00000 272.13966 0.00000 -999.00000 680.00000 -999.00000 
0.46187 0.91440 -0.03276 0.01825 306.45588 0.00000 272.13733 0.00000 -999.00000 680.00000 -999.00000 
0.45665 0.91440 -0.03302 0.01374 308.60607 0.00000 272.13512 0.00000 -999.00000 680.00000 -999.00000 
0.45143 0.91440 -0.03327 0.00940 310.67509 0.00000 272.13298 0.00000 -999.00000 680.00000 -999.00000 
0.44620 0.91440 -0.03351 0.00523 312.67667 0.00000 272.13093 0.00000 -999.00000 680.00000 -999.00000 
0.44098 0.91440 -0.03374 0.00123 314.61996 0.00000 272.12896 0.00000 -999.00000 680.00000 -999.00000 
0.43575 0.91440 -0.03397 -0.00263 316.50731 0.00000 272.12705 0.00000 -999.00000 680.00000 -999.00000 
0.43052 0.91440 -0.03420 -0.00637 318.35315 0.00000 272.12521 0.00000 -999.00000 680.00000 -999.00000 
0.42530 0.91440 -0.03441 -0.00998 320.16470 0.00000 272.12343 0.00000 -999.00000 680.00000 -999.00000 
0.42007 0.91440 -0.03462 -0.01347 321.94717 0.00000 272.12170 0.00000 -999.00000 680.00000 -999.00000 
0.41484 0.91440 -0.03482 -0.01687 323.70640 0.00000 272.12003 0.00000 -999.00000 680.00000 -999.00000 
0.40962 0.91440 -0.03502 -0.02017 325.44878 0.00000 272.11840 0.00000 -999.00000 680.00000 -999.00000 
0.40439 0.91440 -0.03521 -0.02338 327.17601 0.00000 272.11683 0.00000 -999.00000 680.00000 -999.00000 
0.39916 0.91440 -0.03539 -0.02649 328.88840 0.00000 272.11529 0.00000 -999.00000 680.00000 -999.00000 
0.39394 0.91440 -0.03556 -0.02952 330.58725 0.00000 272.11381 0.00000 -999.00000 680.00000 -999.00000 
0.38871 0.91440 -0.03573 -0.03248 332.27218 0.00000 272.11236 0.00000 -999.00000 680.00000 -999.00000 
0.38348 0.91440 -0.03589 -0.03539 333.94759 0.00000 272.11093 0.00000 -999.00000 680.00000 -999.00000 
0.37825 0.91440 -0.03605 -0.03822 335.61870 0.00000 272.10954 0.00000 -999.00000 680.00000 -999.00000 
0.37302 0.91440 -0.03620 -0.04098 337.27853 0.00000 272.10819 0.00000 -999.00000 680.00000 -999.00000 
0.36779 0.91440 -0.03634 -0.04372 338.93184 0.00000 272.10685 0.00000 -999.00000 680.00000 -999.00000 
0.36257 0.91440 -0.03647 -0.04639 340.59136 0.00000 272.10554 0.00000 -999.00000 680.00000 -999.00000 
0.35734 0.91440 -0.03660 -0.04902 342.25132 0.00000 272.10426 0.00000 -999.00000 680.00000 -999.00000 
0.35211 0.91440 -0.03672 -0.05162 343.91567 0.00000 272.10299 0.00000 -999.00000 680.00000 -999.00000 
0.34688 0.91440 -0.03683 -0.05416 345.58859 0.00000 272.10176 0.00000 -999.00000 680.00000 -999.00000 
0.34165 0.91440 -0.03693 -0.05666 347.26839 0.00000 272.10054 0.00000 -999.00000 680.00000 -999.00000 
0.33642 0.91440 -0.03703 -0.05913 348.96127 0.00000 272.09934 0.00000 -999.00000 680.00000 -999.00000 
0.33119 0.91440 -0.03712 -0.06156 350.67106 0.00000 272.09816 0.00000 -999.00000 680.00000 -999.00000 
0.32596 0.91440 -0.03720 -0.06395 352.40100 0.00000 272.09701 0.00000 -999.00000 680.00000 -999.00000 
0.32073 0.91440 -0.03727 -0.06631 354.15333 0.00000 272.09587 0.00000 -999.00000 680.00000 -999.00000 
0.31550 0.91440 -0.03733 -0.06864 355.92924 0.00000 272.09475 0.00000 -999.00000 680.00000 -999.00000 
0.31027 0.91440 -0.03739 -0.07092 357.73188 0.00000 272.09366 0.00000 -999.00000 680.00000 -999.00000 
0.30504 0.91440 -0.03743 -0.07317 359.56351 0.00000 272.09259 0.00000 -999.00000 680.00000 -999.00000 
0.29981 0.91440 -0.03747 -0.07539 361.42222 0.00000 272.09153 0.00000 -999.00000 680.00000 -999.00000 
0.29458 0.91440 -0.03750 -0.07756 363.30582 0.00000 272.09050 0.00000 -999.00000 680.00000 -999.00000 
0.28935 0.91440 -0.03752 -0.07970 365.22284 0.00000 272.08950 0.00000 -999.00000 680.00000 -999.00000 
0.28412 0.91440 -0.03753 -0.08178 367.18143 0.00000 272.08853 0.00000 -999.00000 680.00000 -999.00000 
0.27889 0.91440 -0.03753 -0.08381 369.17846 0.00000 272.08758 0.00000 -999.00000 680.00000 -999.00000 
0.27366 0.91440 -0.03752 -0.08579 371.22201 0.00000 272.08667 0.00000 -999.00000 680.00000 -999.00000 
0.26843 0.91440 -0.03750 -0.08770 373.33069 0.00000 272.08580 0.00000 -999.00000 680.00000 -999.00000 
0.26320 0.91440 -0.03746 -0.08955 375.50334 0.00000 272.08497 0.00000 -999.00000 680.00000 -999.00000 
0.25797 0.91440 -0.03742 -0.09134 377.72153 0.00000 272.08417 0.00000 -999.00000 680.00000 -999.00000 
0.25273 0.91440 -0.03736 -0.09306 379.96926 0.00000 272.08342 0.00000 -999.00000 680.00000 -999.00000 
0.24750 0.91440 -0.03730 -0.09471 382.23728 0.00000 272.08270 0.00000 -999.00000 680.00000 -999.00000 
0.24227 0.91440 -0.03722 -0.09630 384.52673 0.00000 272.08201 0.00000 -999.00000 680.00000 -999.00000 
0.23705 0.91440 -0.03712 -0.09781 386.84212 0.00000 272.08137 0.00000 -999.00000 680.00000 -999.00000 
0.23182 0.91440 -0.03702 -0.09924 389.18911 0.00000 272.08078 0.00000 -999.00000 680.00000 -999.00000 
0.22659 0.91440 -0.03690 -0.10057 391.57598 0.00000 272.08024 0.00000 -999.00000 680.00000 -999.00000 
0.22136 0.91440 -0.03677 -0.10181 394.00818 0.00000 272.07976 0.00000 -999.00000 680.00000 -999.00000 
0.21613 0.91440 -0.03662 -0.10294 396.48867 0.00000 272.07933 0.00000 -999.00000 680.00000 -999.00000 
0.21090 0.91440 -0.03646 -0.10396 399.02350 0.00000 272.07898 0.00000 -999.00000 680.00000 -999.00000 
0.20567 0.91440 -0.03628 -0.10484 401.62035 0.00000 272.07870 0.00000 -999.00000 680.00000 -999.00000 
0.20045 0.91440 -0.03608 -0.10558 404.28721 0.00000 272.07851 0.00000 -999.00000 680.00000 -999.00000 
0.19522 0.91440 -0.03587 -0.10617 407.04176 0.00000 272.07840 0.00000 -999.00000 680.00000 -999.00000 
0.19000 0.91440 -0.03564 -0.10657 409.90614 0.00000 272.07841 0.00000 -999.00000 680.00000 -999.00000 
0.18477 0.91440 -0.03539 -0.10673 412.88355 0.00000 272.07856 0.00000 -999.00000 680.00000 -999.00000 
0.17955 0.91440 -0.03513 -0.10670 415.97532 0.00000 272.07883 0.00000 -999.00000 680.00000 -999.00000 
0.17432 0.91440 -0.03484 -0.10646 419.19052 0.00000 272.07921 0.00000 -999.00000 680.00000 -999.00000 
0.16910 0.91440 -0.03454 -0.10595 422.51403 0.00000 272.07976 0.00000 -999.00000 680.00000 -999.00000 
0.16388 0.91440 -0.03421 -0.10521 425.90937 0.00000 272.08044 0.00000 -999.00000 680.00000 -999.00000 
0.15866 0.91440 -0.03386 -0.10418 429.35900 0.00000 272.08127 0.00000 -999.00000 680.00000 -999.00000 
0.15345 0.91440 -0.03349 -0.10283 432.85779 0.00000 272.08230 0.00000 -999.00000 680.00000 -999.00000 
0.14823 0.91440 -0.03309 -0.10112 436.42096 0.00000 272.08352 0.00000 -999.00000 680.00000 -999.00000 
0.14302 0.91440 -0.03267 -0.09903 440.07718 0.00000 272.08496 0.00000 -999.00000 680.00000 -999.00000 
0.13781 0.91440 -0.03223 -0.09649 443.83166 0.00000 272.08666 0.00000 -999.00000 680.00000 -999.00000 
0.13258 0.91440 -0.03175 -0.09356 447.60650 0.00000 272.08858 0.00000 -999.00000 680.00000 -999.00000 
0.12761 0.91440 -0.03127 -0.09034 451.27400 0.00000 272.09065 0.00000 -999.00000 680.00000 -999.00000 
0.12288 0.91440 -0.03079 -0.08684 454.76320 0.00000 272.09286 0.00000 -999.00000 680.00000 -999.00000 
0.11837 0.91440 -0.03030 -0.08307 458.08683 0.00000 272.09520 0.00000 -999.00000 680.00000 -999.00000 
0.11408 0.91440 -0.02982 -0.07896 461.27308 0.00000 272.09773 0.00000 -999.00000 680.00000 -999.00000 
0.11000 0.91440 -0.02934 -0.07462 464.32924 0.00000 272.10038 0.00000 -999.00000 680.00000 -999.00000 
0.10611 0.91440 -0.02886 -0.06997 467.30033 0.00000 272.10319 0.00000 -999.00000 680.00000 -999.00000 
0.10242 0.91440 -0.02838 -0.06509 470.16908 0.00000 272.10613 0.00000 -999.00000 680.00000 -999.00000 
0.09890 0.91440 -0.02791 -0.06006 472.90900 0.00000 272.18115 0.50000 -999.00000 680.00000 -999.00000 
0.09555 0.91440 -0.02745 -0.05497 475.54329 0.00000 272.70235 0.76203 -999.00000 680.00000 -999.00000 
0.09236 0.91440 -0.02699 -0.04972 477.98093 0.00000 273.15000 0.42265 -999.00000 680.00000 -999.00000 
0.08933 0.91440 -0.02653 -0.04560 480.21485 0.00000 273.15000 0.27502 -999.00000 680.00000 -999.00000 
0.08644 0.91440 -0.02609 -0.03898 484.17965 0.00000 273.15000 0.20541 -999.00000 680.00000 -999.00000 
0.08358 0.91440 -0.02563 -0.03151 488.84414 0.00000 273.15000 0.16703 -999.00000 680.00000 -999.00000 
0.08072 0.91440 -0.02516 -0.02618 492.29204 0.00000 273.15000 0.14120 -999.00000 680.00000 -999.00000 
0.07786 0.91440 -0.02467 -0.01951 495.78366 0.00000 273.15000 0.12225 -999.00000 680.00000 -999.00000 
0.07501 0.91440 -0.02417 -0.01216 499.51058 0.00000 273.15000 0.10781 -999.00000 680.00000 -999.00000 
0.07216 0.91440 -0.02365 -0.00418 503.32777 0.00000 273.15000 0.09641 -999.00000 680.00000 -999.00000 
0.06931 0.91440 -0.02311 0.00442 507.15204 0.00000 273.15000 0.08716 -999.00000 680.00000 -999.00000 
0.06646 0.91440 -0.02255 0.01368 510.91801 0.00000 273.15000 0.07948 -999.00000 680.00000 -999.00000 
0.06362 0.91440 -0.02198 0.02369 514.59386 0.00197 273.15000 0.07305 -999.00000 680.00000 -999.00000 
0.06079 0.91440 -0.02138 0.03447 518.22390 0.00785 273.15000 0.06774 -999.00000 680.00000 -999.00000 
0.05795 0.91440 -0.02076 0.04611 521.95170 0.01611 273.15000 0.06338 -999.00000 680.00000 -999.00000 
0.05513 0.91440 -0.02012 0.05864 525.98683 0.02518 273.15000 0.05979 -999.00000 680.00000 -999.00000 
0.05230 0.91440 -0.01946 0.07213 530.55835 0.03498 273.15000 0.05684 -999.00000 680.00000 -999.00000 
0.04949 0.91440 -0.01877 0.08688 535.71800 0.04554 273.15000 0.05441 -999.00000 680.00000 -999.00000 
0.04668 0.91440 -0.01805 0.10306 541.26186 0.05696 273.15000 0.05240 -999.00000 680.00000 -999.00000 
0.04388 0.91440 -0.01731 0.12105 546.84447 0.06935 273.15000 0.05070 -999.00000 680.00000 -999.00000 
0.04109 0.91440 -0.01654 0.14088 552.11156 0.08275 273.15000 0.04925 -999.00000 680.00000 -999.00000 
0.03830 0.91440 -0.01573 0.16264 556.91769 0.09727 273.15000 0.04803 -999.00000 680.00000 -999.00000 
0.03553 0.91440 -0.01488 0.18639 561.60536 0.11313 273.15000 0.04704 -999.00000 680.00000 -999.00000 
0.03277 0.91440 -0.01400 0.21260 566.74137 0.13044 273.15000 0.04632 -999.00000 680.00000 -999.00000 
0.03002 0.91440 -0.01307 0.24262 571.90968 0.14939 273.15000 0.04578 -999.00000 680.00000 -999.00000 
0.02729 0.91440 -0.01210 0.27675 575.76829 0.17018 273.15000 0.04534 -999.00000 680.00000 -999.00000 
0.02458 0.91440 -0.01108 0.31444 578.15349 0.19303 273.15000 0.04507 -999.00000 680.00000 -999.00000 
0.02189 0.91440 -0.00999 0.35730 579.91390 0.21854 273.15000 0.04501 -999.00000 680.00000 -999.00000 
0.01923 0.91440 -0.00884 0.40677 580.13566 0.24730 273.15000 0.04515 -999.00000 680.00000 -999.00000 
0.01660 0.91440 -0.00761 0.46353 577.66630 0.27990 273.15000 0.04550 -999.00000 680.00000 -999.00000 
0.01402 0.91440 -0.00629 0.53002 572.61627 0.31732 273.15000 0.04620 -999.00000 680.00000 -999.00000 
0.01150 0.91440 -0.00487 0.60844 564.42790 0.36092 273.15000 0.04747 -999.00000 680.00000 -999.00000 
0.00905 0.91440 -0.00332 0.70356 554.62049 0.41254 273.15000 0.04980 -999.00000 680.00000 -999.00000 
0.00672 0.91440 -0.00160 0.80916 544.64418 0.47198 273.15000 0.05261 -999.00000 680.00000 -999.00000 
0.00474 0.91440 0.00013 0.90899 534.43521 0.53540 273.15000 0.05803 -999.00000 680.00000 -999.00000 
0.00318 0.91440 0.00178 0.99012 520.69845 0.59797 273.15000 0.07847 -999.00000 680.00000 -999.00000 
0.00202 0.91440 0.00337 1.03207 519.11595 0.65460 273.15000 0.09491 -999.00000 680.00000 -999.00000 
0.00117 0.91440 0.00490 1.00427 589.04849 0.69874 273.15000 0.07855 -999.00000 680.00000 -999.00000 
0.00063 0.91440 0.00638 0.89289 728.41751 0.72518 273.15000 0.05979 -999.00000 680.00000 -999.00000 
0.00035 0.91440 0.00785 0.68628 869.05570 0.72480 273.15000 0.06172 -999.00000 680.00000 -999.00000 
0.00032 0.91440 0.00930 0.55551 933.11730 0.71603 273.15000 0.06594 -999.00000 680.00000 -999.00000 
0.00055 0.91440 0.01073 0.02769 1036.18998 0.62980 273.15000 0.09077 -999.00000 680.00000 -999.00000 
0.00103 0.91440 0.01214 -0.33861 1080.74407 0.54423 273.15000 0.11354 -999.00000 680.00000 -999.00000 
0.00176 0.91440 0.01352 -0.68421 1100.35578 0.44207 273.15000 0.14503 -999.00000 680.00000 -999.00000 
0.00280 0.91440 0.01492 -0.95832 1076.04015 0.33311 273.15000 0.18494 -999.00000 680.00000 -999.00000 
0.00417 0.91440 0.01632 -1.14689 1022.55888 0.22226 273.15000 0.24183 -999.00000 680.00000 -999.00000 
0.00592 0.91440 0.01774 -1.26369 972.54612 0.11456 273.15000 0.35203 -999.00000 680.00000 -999.00000 
0.00809 0.91440 0.01916 -1.32577 928.15727 0.03120 273.15000 0.64650 -999.00000 680.00000 -999.00000 
0.01063 0.91440 0.02054 -1.34829 886.61078 0.00000 270.50342 0.93320 -999.00000 680.00000 -999.00000 
0.01325 0.91440 0.02173 -1.33954 852.90511 0.00000 269.61857 0.50000 -999.00000 680.00000 -999.00000 
0.01594 0.91440 0.02279 -1.31787 826.34103 0.00000 271.38688 0.00000 -999.00000 680.00000 -999.00000 
0.01866 0.91440 0.02374 -1.29188 803.30713 0.00000 271.40215 0.00000 -999.00000 680.00000 -999.00000 
0.02142 0.91440 0.02459 -1.26393 783.13582 0.00000 271.41860 0.00000 -999.00000 680.00000 -999.00000 
0.02420 0.91440 0.02536 -1.23741 764.87571 0.00000 271.43418 0.00000 -999.00000 680.00000 -999.00000 
0.02700 0.91440 0.02606 -1.21096 748.34785 0.00000 271.44971 0.00000 -999.00000 680.00000 -999.00000 
0.02981 0.91440 0.02670 -1.18563 733.00042 0.00000 271.46456 0.00000 -999.00000 680.00000 -999.00000 
0.03263 0.91440 0.02729 -1.16167 718.13603 0.00000 271.47857 0.00000 -999.00000 680.00000 -999.00000 
0.03547 0.91440 0.02782 -1.13817 703.62185 0.00000 271.49226 0.00000 -999.00000 680.00000 -999.00000 
0.03831 0.91440 0.02831 -1.11555 689.76097 0.00000 271.50543 0.00000 -999.00000 680.00000 -999.00000 
0.04116 0.91440 0.02876 -1.09435 676.56711 0.00000 271.51772 0.00000 -999.00000 680.00000 -999.00000 
0.04401 0.91440 0.02918 -1.07418 664.02424 0.00000 271.52940 0.00000 -999.00000 680.00000 -999.00000 
0.04687 0.91440 0.02956 -1.05512 652.16259 0.00000 271.54041 0.00000 -999.00000 680.00000 -999.00000 
0.04974 0.91440 0.02991 -1.03711 640.89230 0.00000 271.55078 0.00000 -999.00000 680.00000 -999.00000 
0.05260 0.91440 0.03023 -1.01969 630.19194 0.00000 271.56080 0.00000 -999.00000 680.00000 -999.00000 
0.05547 0.91440 0.03052 -1.00294 620.06665 0.00000 271.57042 0.00000 -999.00000 680.00000 -999.00000 
0.05835 0.91440 0.03078 -0.98688 610.43746 0.00000 271.57962 0.00000 -999.00000 680.00000 -999.00000 
0.06122 0.91440 0.03103 -0.97135 601.26777 0.00000 271.58851 0.00000 -999.00000 680.00000 -999.00000 
0.06410 0.91440 0.03124 -0.95632 592.57383 0.00000 271.59710 0.00000 -999.00000 680.00000 -999.00000 
0.06697 0.91440 0.03144 -0.94186 584.32938 0.00000 271.60535 0.00000 -999.00000 680.00000 -999.00000 
0.06985 0.91440 0.03162 -0.92793 576.47032 0.00000 271.61329 0.00000 -999.00000 680.00000 -999.00000 
0.07273 0.91440 0.03178 -0.91438 568.98628 0.00000 271.62100 0.00000 -999.00000 680.00000 -999.00000 
0.07562 0.91440 0.03191 -0.90121 561.88749 0.00000 271.62849 0.00000 -999.00000 680.00000 -999.00000 
0.07850 0.91440 0.03203 -0.88847 555.11833 0.00000 271.63573 0.00000 -999.00000 680.00000 -999.00000 
0.08138 0.91440 0.03214 -0.87611 548.58430 0.00000 271.64274 0.00000 -999.00000 680.00000 -999.00000 
0.08426 0.91440 0.03223 -0.86409 542.45228 0.00000 271.64956 0.00000 -999.00000 680.00000 -999.00000 
0.08715 0.91440 0.03230 -0.85029 537.08237 0.00000 271.65744 0.00000 -999.00000 680.00000 -999.00000 
0.09003 0.91440 0.03235 -0.84087 530.66792 0.00000 271.66269 0.00000 -999.00000 680.00000 -999.00000 
0.09283 0.91440 0.03239 -0.83168 524.55139 0.00000 271.66781 0.00000 -999.00000 680.00000 -999.00000 
0.09576 0.91440 0.03242 -0.81875 520.31195 0.00000 271.67520 0.00000 -999.00000 680.00000 -999.00000 
0.09885 0.91440 0.03244 -0.80757 515.95093 0.00000 271.68156 0.00000 -999.00000 680.00000 -999.00000 
0.10208 0.91440 0.03244 -0.79572 511.35637 0.00000 271.68828 0.00000 -999.00000 680.00000 -999.00000 
0.10548 0.91440 0.03242 -0.78369 506.66892 0.00000 271.69511 0.00000 -999.00000 680.00000 -999.00000 
0.10905 0.91440 0.03239 -0.77130 501.91125 0.00000 271.70212 0.00000 -999.00000 680.00000 -999.00000 
0.11280 0.91440 0.03233 -0.75857 497.14155 0.00000 271.70932 0.00000 -999.00000 680.00000 -999.00000 
0.11673 0.91440 0.03225 -0.74559 492.37172 0.00000 271.71666 0.00000 -999.00000 680.00000 -999.00000 
0.12086 0.91440 0.03215 -0.73232 487.60804 0.00000 271.72416 0.00000 -999.00000 680.00000 -999.00000 
0.12519 0.91440 0.03202 -0.71870 482.84405 0.00000 271.73186 0.00000 -999.00000 680.00000 -999.00000 
0.12975 0.91440 0.03185 -0.70472 478.02336 0.00000 271.73974 0.00000 -999.00000 680.00000 -999.00000 
0.13452 0.91440 0.03166 -0.69045 473.05290 0.00000 271.74777 0.00000 -999.00000 680.00000 -999.00000 
0.13954 0.91440 0.03143 -0.67594 467.83214 0.00000 271.75592 0.00000 -999.00000 680.00000 -999.00000 
0.14480 0.91440 0.03116 -0.66115 462.40154 0.00000 271.76421 0.00000 -999.00000 680.00000 -999.00000 
0.15006 0.91440 0.03086 -0.64646 456.94876 0.00000 271.77241 0.00000 -999.00000 680.00000 -999.00000 
0.15532 0.91440 0.03054 -0.63215 451.54451 0.00000 271.78039 0.00000 -999.00000 680.00000 -999.00000 
0.16058 0.91440 0.03019 -0.61804 446.20642 0.00000 271.78824 0.00000 -999.00000 680.00000 -999.00000 
0.16583 0.91440 0.02981 -0.60428 440.93861 0.00000 271.79587 0.00000 -999.00000 680.00000 -999.00000 
0.17108 0.91440 0.02942 -0.59083 435.73358 0.00000 271.80332 0.00000 -999.00000 680.00000 -999.00000 
0.17633 0.91440 0.02900 -0.57753 430.67681 0.00000 271.81067 0.00000 -999.00000 680.00000 -999.00000 
0.18158 0.91440 0.02856 -0.56454 425.83549 0.00000 271.81784 0.00000 -999.00000 680.00000 -999.00000 
0.18683 0.91440 0.02811 -0.55187 421.20548 0.00000 271.82483 0.00000 -999.00000 680.00000 -999.00000 
0.19207 0.91440 0.02763 -0.53948 416.74892 0.00000 271.83166 0.00000 -999.00000 680.00000 -999.00000 
0.19732 0.91440 0.02713 -0.52738 412.41038 0.00000 271.83832 0.00000 -999.00000 680.00000 -999.00000 
0.20256 0.91440 0.02662 -0.51544 408.16213 0.00000 271.84488 0.00000 -999.00000 680.00000 -999.00000 
0.20780 0.91440 0.02609 -0.50362 404.02012 0.00000 271.85137 0.00000 -999.00000 680.00000 -999.00000 
0.21304 0.91440 0.02554 -0.49195 400.00955 0.00000 271.85777 0.00000 -999.00000 680.00000 -999.00000 
0.21827 0.91440 0.02498 -0.48041 396.15075 0.00000 271.86409 0.00000 -999.00000 680.00000 -999.00000 
0.22351 0.91440 0.02440 -0.46908 392.43393 0.00000 271.87030 0.00000 -999.00000 680.00000 -999.00000 
0.22874 0.91440 0.02380 -0.45794 388.82291 0.00000 271.87640 0.00000 -999.00000 680.00000 -999.00000 
0.23397 0.91440 0.02320 -0.44695 385.29488 0.00000 271.88241 0.00000 -999.00000 680.00000 -999.00000 
0.23920 0.91440 0.02257 -0.43611 381.83835 0.00000 271.88832 0.00000 -999.00000 680.00000 -999.00000 
0.24443 0.91440 0.02194 -0.42543 378.43786 0.00000 271.89414 0.00000 -999.00000 680.00000 -999.00000 
0.24966 0.91440 0.02129 -0.41490 375.08022 0.00000 271.89987 0.00000 -999.00000 680.00000 -999.00000 
0.25489 0.91440 0.02063 -0.40450 371.76075 0.00000 271.90552 0.00000 -999.00000 680.00000 -999.00000 
0.26011 0.91440 0.01995 -0.39424 368.47608 0.00000 271.91109 0.00000 -999.00000 680.00000 -999.00000 
0.26533 0.91440 0.01927 -0.38411 365.22043 0.00000 271.91657 0.00000 -999.00000 680.00000 -999.00000 
0.27055 0.91440 0.01857 -0.37410 361.98886 0.00000 271.92197 0.00000 -999.00000 680.00000 -999.00000 
0.27577 0.91440 0.01786 -0.36421 358.78137 0.00000 271.92730 0.00000 -999.00000 680.00000 -999.00000 
0.28099 0.91440 0.01715 -0.35441 355.61418 0.00000 271.93258 0.00000 -999.00000 680.00000 -999.00000 
0.28621 0.91440 0.01642 -0.34471 352.50835 0.00000 271.93779 0.00000 -999.00000 680.00000 -999.00000 
0.29142 0.91440 0.01568 -0.33516 349.46234 0.00000 271.94291 0.00000 -999.00000 680.00000 -999.00000 
0.29663 0.91440 0.01493 -0.32572 346.46313 0.00000 271.94797 0.00000 -999.00000 680.00000 -999.00000 
0.30185 0.91440 0.01417 -0.31636 343.50757 0.00000 271.95298 0.00000 -999.00000 680.00000 -999.00000 
0.30706 0.91440 0.01340 -0.30708 340.59664 0.00000 271.95794 0.00000 -999.00000 680.00000 -999.00000 
0.31227 0.91440 0.01262 -0.29787 337.72753 0.00000 271.96285 0.00000 -999.00000 680.00000 -999.00000 
0.31747 0.91440 0.01184 -0.28873 334.89523 0.00000 271.96773 0.00000 -999.00000 680.00000 -999.00000 
0.32268 0.91440 0.01104 -0.27966 332.09260 0.00000 271.97255 0.00000 -999.00000 680.00000 -999.00000 
0.32789 0.91440 0.01024 -0.27065 329.31099 0.00000 271.97734 0.00000 -999.00000 680.00000 -999.00000 
0.33309 0.91440 0.00943 -0.26170 326.54137 0.00000 271.98208 0.00000 -999.00000 680.00000 -999.00000 
0.33829 0.91440 0.00861 -0.25281 323.77625 0.00000 271.98679 0.00000 -999.00000 680.00000 -999.00000 
0.34349 0.91440 0.00778 -0.24395 321.01034 0.00000 271.99146 0.00000 -999.00000 680.00000 -999.00000 
0.34870 0.91440 0.00695 -0.23513 318.23751 0.00000 271.99610 0.00000 -999.00000 680.00000 -999.00000 
0.35389 0.91440 0.00611 -0.22636 315.44558 0.00000 272.00071 0.00000 -999.00000 680.00000 -999.00000 
0.35909 0.91440 0.00526 -0.21760 312.63728 0.00000 272.00529 0.00000 -999.00000 680.00000 -999.00000 
0.36429 0.91440 0.00440 -0.20883 309.82067 0.00000 272.00987 0.00000 -999.00000 680.00000 -999.00000 
0.36948 0.91440 0.00354 -0.20012 306.97676 0.00000 272.01440 0.00000 -999.00000 680.00000 -999.00000 
0.37468 0.91440 0.00266 -0.19139 304.09963 0.00000 272.01893 0.00000 -999.00000 680.00000 -999.00000 
0.37987 0.91440 0.00179 -0.18265 301.19909 0.00000 272.02345 0.00000 -999.00000 680.00000 -999.00000 
0.38506 0.91440 0.00090 -0.17391 298.26944 0.00000 272.02795 0.00000 -999.00000 680.00000 -999.00000 
0.39026 0.91440 0.00001 -0.16517 295.29755 0.00000 272.03244 0.00000 -999.00000 680.00000 -999.00000 
0.39544 0.91440 -0.00089 -0.15641 292.27991 0.00000 272.03692 0.00000 -999.00000 680.00000 -999.00000 
0.40063 0.91440 -0.00180 -0.14761 289.21813 0.00000 272.04140 0.00000 -999.00000 680.00000 -999.00000 
0.40582 0.91440 -0.00271 -0.13879 286.10614 0.00000 272.04586 0.00000 -999.00000 680.00000 -999.00000 
0.41101 0.91440 -0.00363 -0.12994 282.93745 0.00000 272.05033 0.00000 -999.00000 680.00000 -999.00000 
0.41619 0.91440 -0.00456 -0.12104 279.70511 0.00000 272.05479 0.00000 -999.00000 680.00000 -999.00000 
0.42138 0.91440 -0.00549 -0.11210 276.39978 0.00000 272.05925 0.00000 -999.00000 680.00000 -999.00000 
0.42656 0.91440 -0.00643 -0.10310 273.01176 0.00000 272.06371 0.00000 -999.00000 680.00000 -999.00000 
0.43174 0.91440 -0.00738 -0.09403 269.53800 0.00000 272.06817 0.00000 -999.00000 680.00000 -999.00000 
0.43692 0.91440 -0.00833 -0.08489 265.98976 0.00000 272.07264 0.00000 -999.00000 680.00000 -999.00000 
0.44210 0.91440 -0.00929 -0.07565 262.36437 0.00000 272.07712 0.00000 -999.00000 680.00000 -999.00000 
0.44728 0.91440 -0.01026 -0.06632 258.64165 0.00000 272.08162 0.00000 -999.00000 680.00000 -999.00000 
0.45245 0.91440 -0.01123 -0.05690 254.82679 0.00000 272.08611 0.00000 -999.00000 680.00000 -999.00000 
0.45763 0.91440 -0.01221 -0.04738 250.91546 0.00000 272.09062 0.00000 -999.00000 680.00000 -999.00000 
0.46280 0.91440 -0.01320 -0.03774 246.89239 0.00000 272.09514 0.00000 -999.00000 680.00000 -999.00000 
0.46797 0.91440 -0.01419 -0.02800 242.75246 0.00000 272.09966 0.00000 -999.00000 680.00000 -999.00000 
0.47314 0.91440 -0.01519 -0.01813 238.47650 0.00000 272.10417 0.00000 -999.00000 680.00000 -999.00000 
0.47831 0.91440 -0.01620 -0.00815 234.04348 0.00000 272.10867 0.00000 -999.00000 680.00000 -999.00000 
0.48348 0.91440 -0.01722 0.00196 229.43633 0.00000 272.11314 0.00000 -999.00000 680.00000 -999.00000 
0.48865 0.91440 -0.01824 0.01218 224.63681 0.00000 272.11758 0.00000 -999.00000 680.00000 -999.00000 
0.49381 0.91440 -0.01927 0.02250 219.62510 0.00000 272.12194 0.00000 -999.00000 680.00000 -999.00000 
0.49898 0.91440 -0.02031 0.03287 214.37437 0.00000 272.12619 0.00000 -999.00000 680.00000 -999.00000 
0.50414 0.91440 -0.02135 0.04327 208.91428 0.00000 272.13032 0.00000 -999.00000 680.00000 -999.00000 
0.50930 0.91440 -0.02240 0.05362 203.43869 0.00000 272.13431 0.00000 -999.00000 680.00000 -999.00000 
0.51446 0.91440 -0.02346 0.06402 198.33288 0.00000 272.13836 0.00000 -999.00000 680.00000 -999.00000 
0.51962 0.91440 -0.02453 0.07375 194.15626 0.00000 272.14228 0.00000 -999.00000 680.00000 -999.00000 
0.52477 0.91440 -0.02561 0.08482 192.58856 0.00000 272.14786 0.00000 -999.00000 680.00000 -999.00000 
0.52859 0.91440 -0.02641 0.09157 195.63534 0.00000 272.15271 0.00000 -999.00000 680.00000 -999.00000 
0.53098 0.91440 -0.02692 0.11778 178.97163 0.00000 272.15975 0.00000 -999.00000 680.00000 -999.00000 
0.53247 0.91440 -0.02724 -0.05228 147.70168 0.00000 272.05023 0.00000 -999.00000 680.00000 -999.00000 
0.53246 0.91440 -0.02738 -0.00565 128.51058 0.00000 272.06010 0.00000 -999.00000 680.00000 -999.00000 
0.53245 0.91440 -0.02753 0.04555 114.90119 0.00000 272.07818 0.00000 -999.00000 680.00000 -999.00000 
0.53244 0.91440 -0.02768 0.05107 121.56348 0.00000 272.08788 0.00000 -999.00000 680.00000 -999.00000 
0.53243 0.91440 -0.02783 0.05265 124.40980 0.00000 272.09128 0.00000 -999.00000 680.00000 -999.00000 
0.53242 0.91440 -0.02798 0.05195 121.84316 0.00000 272.08850 0.00000 -999.00000 680.00000 -999.00000 

ZONE T="SLICE_Y_0p9144_BINS03_KS_0p5mm_CUTDATA"
0.53242 0.91440 -0.02798 0.05195 121.84316 0.00000 272.08850 0.00000 -999.00000 680.00000 -999.00000 
0.53241 0.91440 -0.02813 0.04571 108.74195 0.00000 272.07115 0.00000 -999.00000 680.00000 -999.00000 
0.53240 0.91440 -0.02828 0.03067 87.39350 0.00000 272.03081 0.00000 -999.00000 680.00000 -999.00000 
0.53239 0.91440 -0.02843 -0.04275 103.69763 0.00000 272.00658 0.00000 -999.00000 680.00000 -999.00000 
0.53238 0.91440 -0.02858 -0.10605 132.58138 0.00000 272.01001 0.00000 -999.00000 680.00000 -999.00000 