TITLE = "002_NACA0012_AE3933_01 | NACA0012 coordinates rotated +4 degrees about X=0.13335 m"
AUXDATA NUM_LAYERS = "1"
AUXDATA DATA_TYPE = "SLICE"
VARIABLES = "X_ICED" "Y_ICED" "Z_ICED"

ZONE T="SLICE_Y_0p9144_BINS01_KS_1mm_SINGLE_LAYER"
-999 -999 -999

ZONE T="SLICE_Y_0p9144_BINS03_KS_1mm_SINGLE_LAYER"
0.532101516288 0.9144 0.000857588719358
0.532749723186 0.9144 0.000762573895518
0.533144353684 0.9144 0.000709973796257
0.533397930084 0.9144 0.000667559071678
0.533404208167 0.9144 0.000577778307154
0.533399813045 0.9144 0.000497275618396
0.533396115487 0.9144 0.000406797289135
0.533402393569 0.9144 0.000317016524612
0.533398696011 0.9144 0.000226538195351
0.533404974094 0.9144 0.000136757430828
0.533401276536 0.9144 4.62791015668e-05
0.533397578978 0.9144 -4.4199227694e-05
0.533403857061 0.9144 -0.000133979992217
0.533400159503 0.9144 -0.000224458321478
0.533396461945 0.9144 -0.000314936650739
0.533402740028 0.9144 -0.000404717415262
0.53339904247 0.9144 -0.000495195744523
0.533405320553 0.9144 -0.000584976509047
0.533401622995 0.9144 -0.000675454838307
0.533142953906 0.9144 -0.000703567161984
0.532746020981 0.9144 -0.000761396672989
0.532101092172 0.9144 -0.000856616583436
0.531068508512 0.9144 -0.000998992799648
0.529420225401 0.9144 -0.00122452059159
0.526869041957 0.9144 -0.00158335625816
0.524327136589 0.9144 -0.00193151871949
0.521775255581 0.9144 -0.00228037874556
0.519223374572 0.9144 -0.00262923877162
0.516671493563 0.9144 -0.00297809879769
0.51411891499 0.9144 -0.00331698318325
0.511566336417 0.9144 -0.00365586756882
0.509013757843 0.9144 -0.00399475195438
0.50646117927 0.9144 -0.00433363633995
0.503908600696 0.9144 -0.00467252072551
0.501356022123 0.9144 -0.00501140511107
0.498802745985 0.9144 -0.00534031385613
0.496249469847 0.9144 -0.0056692226012
0.493696193709 0.9144 -0.00599813134626
0.491142917571 0.9144 -0.00632704009132
0.488588943868 0.9144 -0.00664597319588
0.48603566773 0.9144 -0.00697488194094
0.483481694027 0.9144 -0.0072938150455
0.480927720324 0.9144 -0.00761274815006
0.478373746621 0.9144 -0.00793168125462
0.475819772918 0.9144 -0.00825061435917
0.473265101651 0.9144 -0.00855957182323
0.470711127948 0.9144 -0.00887850492779
0.46815645668 0.9144 -0.00918746239185
0.465601785413 0.9144 -0.0094964198559
0.463047114145 0.9144 -0.00980537731996
0.460491745313 0.9144 -0.0101043591435
0.457927098405 0.9144 -0.0104140141723
0.455371729572 0.9144 -0.0107129959959
0.45281636074 0.9144 -0.0110119778194
0.450260991908 0.9144 -0.011310959643
0.447705623075 0.9144 -0.0116099414665
0.445150254243 0.9144 -0.0119089232901
0.442594187846 0.9144 -0.0121979294731
0.440028843373 0.9144 -0.0124976088614
0.437472776976 0.9144 -0.0127866150445
0.434916710579 0.9144 -0.0130756212275
0.432360644182 0.9144 -0.0133646274106
0.429804577785 0.9144 -0.0136536335936
0.427237838183 0.9144 -0.0139333617009
0.424681074221 0.9144 -0.0142123922435
0.422125007824 0.9144 -0.0145013984265
0.419568243862 0.9144 -0.0147804289691
0.4170114799 0.9144 -0.0150594595116
0.414444042733 0.9144 -0.0153292119784
0.411887278771 0.9144 -0.0156082425209
0.409329817245 0.9144 -0.015877297423
0.406773053283 0.9144 -0.0161563279655
0.404205616116 0.9144 -0.0164260804323
0.40164815459 0.9144 -0.0166951353344
0.399089995498 0.9144 -0.0169542145959
0.396532533972 0.9144 -0.0172232694979
0.39396439924 0.9144 -0.0174830463242
0.391406937713 0.9144 -0.0177521012263
0.388848778622 0.9144 -0.0180111804878
0.38628064389 0.9144 -0.0182709573141
0.383721787234 0.9144 -0.0185200609351
0.381163628143 0.9144 -0.0187791401967
0.378594795847 0.9144 -0.0190289413825
0.376036636755 0.9144 -0.019288020644
0.373477780099 0.9144 -0.019537124265
0.370908947803 0.9144 -0.0197869254508
0.368349393582 0.9144 -0.0200260534314
0.365790536926 0.9144 -0.0202751570524
0.363221007065 0.9144 -0.0205149825977
0.360662150409 0.9144 -0.0207640862187
0.358102596188 0.9144 -0.0210032141993
0.355532368762 0.9144 -0.021233064104
0.352972814541 0.9144 -0.0214721920846
0.350413260321 0.9144 -0.0217113200651
0.347843032895 0.9144 -0.0219411699699
0.345282781109 0.9144 -0.0221703223099
0.342712553683 0.9144 -0.0224001722147
0.340152301898 0.9144 -0.0226293245547
0.337591352548 0.9144 -0.0228485012542
0.335021125122 0.9144 -0.023078351159
0.332460175771 0.9144 -0.0232975278586
0.329899226421 0.9144 -0.0235167045581
0.32732830143 0.9144 -0.0237365788224
0.324766654515 0.9144 -0.0239457798814
0.322195729525 0.9144 -0.0241656541457
0.31963408261 0.9144 -0.0243748552047
0.317062460054 0.9144 -0.0245847538285
0.314500813139 0.9144 -0.0247939548875
0.31193846866 0.9144 -0.024993180306
0.309366846104 0.9144 -0.0252030789298
0.306804501624 0.9144 -0.0254023043483
0.304232181504 0.9144 -0.0256022273316
0.30166913946 0.9144 -0.0257914771096
0.29910679498 0.9144 -0.0259907025281
0.296533777295 0.9144 -0.0261806498709
0.293970735251 0.9144 -0.0263698996489
0.291397717566 0.9144 -0.0265598469917
0.288834675521 0.9144 -0.0267490967697
0.286260960272 0.9144 -0.026929068472
0.283697220663 0.9144 -0.0271083426095
0.281133481053 0.9144 -0.027287616747
0.278559068239 0.9144 -0.0274576128088
0.27599532863 0.9144 -0.0276368869463
0.273420915815 0.9144 -0.027806883008
0.270856478642 0.9144 -0.0279761815051
0.268281368262 0.9144 -0.0281362019263
0.265716233524 0.9144 -0.0282955247828
0.263151098785 0.9144 -0.0284548476394
0.260575988406 0.9144 -0.0286148680606
0.258010853667 0.9144 -0.0287741909171
0.255435045723 0.9144 -0.0289242356979
0.25286921342 0.9144 -0.0290735829139
0.250302683552 0.9144 -0.0292129544894
0.247726875608 0.9144 -0.0293629992702
0.24516034574 0.9144 -0.0295023708457
0.242583142667 0.9144 -0.0296324643454
0.240016612798 0.9144 -0.0297718359209
0.237449385366 0.9144 -0.0299012318559
0.234871484728 0.9144 -0.0300213497152
0.232304257295 0.9144 -0.0301507456502
0.229726356657 0.9144 -0.0302708635094
0.227158431659 0.9144 -0.0303902838039
0.224589809097 0.9144 -0.0304997284579
0.222021186534 0.9144 -0.0306091731119
0.219442588331 0.9144 -0.0307193153307
0.216873268204 0.9144 -0.0308187843442
0.214293972437 0.9144 -0.0309189509224
0.21172465231 0.9144 -0.0310184199359
0.209154634618 0.9144 -0.0311079133089
0.206583919361 0.9144 -0.0311874310414
0.204003926029 0.9144 -0.0312776219792
0.201433210773 0.9144 -0.0313571397117
0.198861797951 0.9144 -0.0314266818037
0.196291082695 0.9144 -0.0315061995362
0.193718972309 0.9144 -0.0315657659876
0.191137583847 0.9144 -0.0316360056444
0.188564775896 0.9144 -0.0316855964554
0.18599266551 0.9144 -0.0317451629069
0.183419857559 0.9144 -0.0317947537178
0.180846352044 0.9144 -0.0318343688883
0.178272846528 0.9144 -0.0318739840588
0.175699341013 0.9144 -0.0319135992293
0.173125137933 0.9144 -0.0319432387593
0.170550237288 0.9144 -0.0319629026488
0.167975336643 0.9144 -0.0319825665382
0.165400435998 0.9144 -0.0320022304277
0.162824837788 0.9144 -0.0320119186767
0.160258517654 0.9144 -0.0320109337204
0.15768222188 0.9144 -0.0320106463289
0.155105228541 0.9144 -0.0320003832969
0.152528235201 0.9144 -0.0319901202649
0.149960519938 0.9144 -0.0319691840276
0.147382829034 0.9144 -0.0319489453551
0.144803743001 0.9144 -0.0319087554015
0.142235330173 0.9144 -0.0318778435238
0.139656941704 0.9144 -0.0318476292107
0.13709062157 0.9144 -0.0318466442545
0.134514325795 0.9144 -0.0318463568629
0.131935937327 0.9144 -0.0318161425499
0.12936473424 0.9144 -0.0317453281101
0.126784253077 0.9144 -0.0316851868756
0.124214445119 0.9144 -0.0316343237168
0.121643242032 0.9144 -0.031563509277
0.119069248686 0.9144 -0.0314527922752
0.116497348034 0.9144 -0.031372002195
0.113915471742 0.9144 -0.0312919096794
0.111322922244 0.9144 -0.0312025390881
0.108850080433 0.9144 -0.0311047977199
0.106496248743 0.9144 -0.0309887099344
0.104252846663 0.9144 -0.0308749245773
0.102119874193 0.9144 -0.0307634416486
0.100087355693 0.9144 -0.030654958713
0.0981446179574 0.9144 -0.0305401976947
0.0963023341917 0.9144 -0.0304284366696
0.0945498311906 0.9144 -0.0303103975619
0.0928785284429 0.9144 -0.0302067292172
0.0912870308193 0.9144 -0.0300974803547
0.0897660602439 0.9144 -0.0299933241795
0.0883248947925 0.9144 -0.0298835874864
0.0868837293412 0.9144 -0.0297738507933
0.0854325882493 0.9144 -0.0296648116649
0.083991422798 0.9144 -0.0295550749718
0.0825495597819 0.9144 -0.0294353626382
0.081106999201 0.9144 -0.0293056746641
0.0796651361849 0.9144 -0.0291859623305
0.0782225756041 0.9144 -0.0290562743564
0.0767800150233 0.9144 -0.0289265863823
0.0753367568777 0.9144 -0.0287869227677
0.0738928011674 0.9144 -0.0286372835126
0.0724595186623 0.9144 -0.0284969223333
0.071015562952 0.9144 -0.0283472830781
0.0695716072417 0.9144 -0.028197643823
0.0681369296072 0.9144 -0.0280373313627
0.0666922763321 0.9144 -0.0278777164671
0.0652476230571 0.9144 -0.0277181015715
0.0638122478578 0.9144 -0.0275478134706
0.0623768726585 0.9144 -0.0273775253697
0.060930824254 0.9144 -0.0271979591931
0.05949475149 0.9144 -0.0270176954518
0.0580579811612 0.9144 -0.0268274560699
0.0566205132677 0.9144 -0.0266272410476
0.0551830453743 0.9144 -0.0264270260252
0.053744879916 0.9144 -0.0262168353623
0.0523081095873 0.9144 -0.0260265959805
0.050869944129 0.9144 -0.0258164053176
0.0494310811061 0.9144 -0.0255962390142
0.0479943107773 0.9144 -0.0254059996324
0.0465239159692 0.9144 -0.025308331274
0.045064891931 0.9144 -0.0252299166319
0.0436009849397 0.9144 -0.0250816725062
0.0421477511537 0.9144 -0.0249427064564
0.0406845417271 0.9144 -0.0248044379712
0.0392206347358 0.9144 -0.0246561938456
0.0377646106907 0.9144 -0.0244773252337
0.0362928207531 0.9144 -0.0243597055943
0.0347486891694 0.9144 -0.0244977550501
0.0330146693101 0.9144 -0.0253608165353
0.0312600006049 0.9144 -0.0262152975095
0.0296437371093 0.9144 -0.0264686595287
0.0280963274361 0.9144 -0.0264164742503
0.0266205618443 0.9144 -0.0260986442361
0.0251505865045 0.9144 -0.0257202628141
0.0244355501156 0.9144 -0.0255296769737
0.0236898892405 0.9144 -0.025331208187
0.0229029306739 0.9144 -0.0251155783782
0.0222178212065 0.9144 -0.0249228998435
0.0207436604783 0.9144 -0.0244846645786
0.0192787778259 0.9144 -0.0240357561084
0.0178025244035 0.9144 -0.0235675939219
0.0163341539274 0.9144 -0.0230688072492
0.0148544126813 0.9144 -0.0225507668603
0.013381159252 0.9144 -0.021982150704
0.011915788769 0.9144 -0.0213829100616
0.011315577113 0.9144 -0.0211141239608
0.0104369548218 0.9144 -0.0207344887813
0.00897528189668 0.9144 -0.0200447698096
0.00836090921174 0.9144 -0.0197168274305
0.00751800409416 0.9144 -0.0192745481491
0.00609295564154 0.9144 -0.0183918041842
0.00472797076611 0.9144 -0.017364518299
0.00360651828897 0.9144 -0.0159492994673
0.00287683768817 0.9144 -0.0141157329371
0.0018869514976 0.9144 -0.0128617292171
0.000562147280559 0.9144 -0.0121223417771
-0.000393138769526 0.9144 -0.0110764313782
-0.00125794649035 0.9144 -0.0100342185371
-0.00219558368782 0.9144 -0.00909734261904
-0.00297919115515 0.9144 -0.00806950054112
-0.00365515927116 0.9144 -0.00700405832958
-0.00447587904155 0.9144 -0.00601890907261
-0.00633657758678 0.9144 -0.00535709269039
-0.0092389281327 0.9144 -0.00470796919784
-0.0116574236094 0.9144 -0.00352379031381
-0.0130856087795 0.9144 -0.00187940984696
-0.015512333661 0.9144 -4.12150930563e-06
-0.0159209791679 0.9144 0.00211252887508
-0.0163665272437 0.9144 0.00432684297027
-0.0163724495726 0.9144 0.00656187427341
-0.016066336787 0.9144 0.00877862752141
-0.0154020082422 0.9144 0.0108901122087
-0.0148896897431 0.9144 0.0118782568112
-0.0143952298308 0.9144 0.0128350793627
-0.0131336896231 0.9144 0.0145773239794
-0.0124695754601 0.9144 0.0151149598957
-0.0114352455653 0.9144 0.0159491431302
-0.00822560148606 0.9144 0.0159229728337
-0.00334898606711 0.9144 0.0138480940286
0.00077387579625 0.9144 0.0118007029923
0.00301755597262 0.9144 0.0113962289311
0.00455771190206 0.9144 0.0117344887617
0.00601548218272 0.9144 0.0122474271682
0.00743774502396 0.9144 0.0128380780045
0.0088400565842 0.9144 0.0134273337113
0.0102472510976 0.9144 0.0139467599346
0.0116558407405 0.9144 0.0144462348769
0.0130451766671 0.9144 0.0149343390492
0.0144359077232 0.9144 0.0154024919405
0.0158280339087 0.9144 0.0158506935508
0.0172215552238 0.9144 0.0162789438801
0.0186164716683 0.9144 0.0166872429284
0.020013480807 0.9144 0.0170656150552
0.021421163151 0.9144 0.0174347091062
0.0228081966492 0.9144 0.0178123836683
0.0241945325827 0.9144 0.0182000338709
0.0255681026167 0.9144 0.0186268890707
0.0269523458559 0.9144 0.0190444661947
0.0283273110195 0.9144 0.0194513701136
0.0297129493882 0.9144 0.0198489959566
0.0310999828864 0.9144 0.0202266705187
0.0324877139494 0.9144 0.0205943694402
0.0338861182176 0.9144 0.020952790286
0.0352852200505 0.9144 0.0213012354913
0.0366850194482 0.9144 0.0216397050561
0.0380855164106 0.9144 0.0219681989803
0.0394867109377 0.9144 0.0222867172641
0.0408886030296 0.9144 0.0225952599074
0.0423011683267 0.9144 0.0228945244749
0.0437037579833 0.9144 0.0231930914777
0.0451177184099 0.9144 0.0234724047642
0.0465316788365 0.9144 0.0237517180507
0.0479463368279 0.9144 0.0240210556967
0.0493616923839 0.9144 0.0242804177022
0.0507777455048 0.9144 0.0245298040672
0.0521937986256 0.9144 0.0247791904321
0.0536105493111 0.9144 0.0250186011566
0.0550272999967 0.9144 0.0252580118811
0.0564547238874 0.9144 0.0254881445299
0.0578728697025 0.9144 0.0257076039733
0.059300991158 0.9144 0.0259277609816
0.0607198345378 0.9144 0.0261372447845
0.0621386779175 0.9144 0.0263467285875
0.0635681945025 0.9144 0.0265469343147
0.0649984086523 0.9144 0.0267371644015
0.0664179495968 0.9144 0.0269366725639
0.0678488613112 0.9144 0.0271169270102
0.0692797730257 0.9144 0.0272971814564
0.0707007090997 0.9144 0.0274767383378
0.0721323183789 0.9144 0.0276470171435
0.0735639276581 0.9144 0.0278172959493
0.074996234502 0.9144 0.0279775991145
0.0764185657055 0.9144 0.0281372047149
0.0778515701142 0.9144 0.0282875322396
0.0792845745229 0.9144 0.0284378597643
0.0807182764963 0.9144 0.0285782116485
0.082151280905 0.9144 0.0287285391732
0.0835757048026 0.9144 0.0288582178522
0.0850094067761 0.9144 0.0289985697364
0.0864438063142 0.9144 0.0291289459801
0.0878789034171 0.9144 0.0292493465833
0.0893133029553 0.9144 0.029379722827
0.0908182295417 0.9144 0.0295050063834
0.0923936831764 0.9144 0.0296251972524
0.0940582200108 0.9144 0.0297616418445
0.0958032595341 0.9144 0.0298936913141
0.097628801746 0.9144 0.0300213456611
0.099554100363 0.9144 0.0301559756554
0.101569877309 0.9144 0.0302869080918
0.103695386301 0.9144 0.0304255137404
0.105921349263 0.9144 0.0305611193959
0.108257741834 0.9144 0.0306944226229
0.110714539657 0.9144 0.0308261209863
0.11329174273 0.9144 0.0309562144861
0.115869643368 0.9144 0.0310763323453
0.118448241571 0.9144 0.031186474564
0.121016864134 0.9144 0.031295919218
0.123596159901 0.9144 0.0313960857963
0.126176153234 0.9144 0.031486276734
0.12874686849 0.9144 0.0315657944665
0.131328256952 0.9144 0.0316360341232
0.133909645414 0.9144 0.03170627378
0.1364817558 0.9144 0.0317658402315
0.139064539391 0.9144 0.0318161286072
0.141637347342 0.9144 0.0318657194182
0.144210852857 0.9144 0.0319053345887
0.146795031578 0.9144 0.0319356716834
0.149369234658 0.9144 0.0319653112134
0.151954110944 0.9144 0.0319856726676
0.154529011589 0.9144 0.0320053365571
0.157105307363 0.9144 0.0320050491656
0.159680905573 0.9144 0.0320147374145
0.162267176988 0.9144 0.0320151475877
0.164844170327 0.9144 0.0320048845557
0.167421163666 0.9144 0.0319946215237
0.16999885457 0.9144 0.0319743828512
0.172577243039 0.9144 0.0319441685381
0.175154933942 0.9144 0.0319239298656
0.177734019976 0.9144 0.0318837399121
0.180313106009 0.9144 0.0318435499585
0.182882216402 0.9144 0.0318026624403
0.185462 0.9144 0.0317524968462
0.188041783598 0.9144 0.0317023312522
0.190622264761 0.9144 0.0316421900176
0.193192770284 0.9144 0.0315813512184
0.195773949011 0.9144 0.0315112343433
0.198355127739 0.9144 0.0314411174683
0.200926330826 0.9144 0.0313703030285
0.203508207118 0.9144 0.031290210513
0.20608010777 0.9144 0.0312094204327
0.208662681627 0.9144 0.0311193522766
0.211235279844 0.9144 0.0310285865558
0.21380787806 0.9144 0.0309378208351
0.216391149482 0.9144 0.0308377770385
0.218964445264 0.9144 0.0307370356772
0.22153843861 0.9144 0.0306263186754
0.224122407596 0.9144 0.0305162992384
0.226696400942 0.9144 0.0304055822366
0.229270394288 0.9144 0.0302948652348
0.231845085199 0.9144 0.0301741725925
0.234420473675 0.9144 0.0300435043097
0.236995164585 0.9144 0.0299228116674
0.239570553061 0.9144 0.0297921433846
0.242145941536 0.9144 0.0296614751018
0.244722027577 0.9144 0.0295208311785
0.247298113617 0.9144 0.0293801872552
0.249864224017 0.9144 0.0292388457672
0.252440310057 0.9144 0.0290982018439
0.255017093662 0.9144 0.0289475822801
0.257583901626 0.9144 0.0287962651515
0.260160685231 0.9144 0.0286456455877
0.262738166401 0.9144 0.0284850503834
0.26530567193 0.9144 0.0283237576144
0.2678831531 0.9144 0.0281631624101
0.270450658629 0.9144 0.0280018696411
0.273028837364 0.9144 0.0278312987963
0.275597040458 0.9144 0.0276600303867
0.278175219192 0.9144 0.0274894595419
0.280744119851 0.9144 0.0273082154919
0.283312322945 0.9144 0.0271369470823
0.285891199244 0.9144 0.026956400597
0.288460099903 0.9144 0.026775156547
0.291029698126 0.9144 0.0265839368564
0.293608574426 0.9144 0.0264033903711
0.296178172649 0.9144 0.0262121706806
0.298747770872 0.9144 0.02602095099
0.301318066661 0.9144 0.025819755659
0.303887664884 0.9144 0.0256285359684
0.306457960672 0.9144 0.0254273406374
0.30902825646 0.9144 0.0252261453063
0.311598552249 0.9144 0.0250249499753
0.314169545602 0.9144 0.0248137790037
0.31673984139 0.9144 0.0246125836726
0.319310834743 0.9144 0.0244014127011
0.321881828096 0.9144 0.0241902417295
0.324442845808 0.9144 0.0239783731932
0.327014536726 0.9144 0.0237572265812
0.329585530079 0.9144 0.0235460556096
0.332157220996 0.9144 0.0233249089976
0.334718936273 0.9144 0.0231030648208
0.337290627191 0.9144 0.0228819182087
0.339863015673 0.9144 0.0226507959562
0.342424730951 0.9144 0.0224289517794
0.344997119433 0.9144 0.0221978295268
0.347559532275 0.9144 0.0219660097095
0.350131920757 0.9144 0.021734887457
0.352694333599 0.9144 0.0215030676397
0.355267419646 0.9144 0.0212619697466
0.357830530053 0.9144 0.0210201742888
0.3604036161 0.9144 0.0207790763957
0.362966726507 0.9144 0.0205372809379
0.365529836913 0.9144 0.0202954854801
0.368102922961 0.9144 0.0200543875871
0.370666730932 0.9144 0.0198026164888
0.373229841339 0.9144 0.019560821031
0.37580362495 0.9144 0.0193097474974
0.378367432922 0.9144 0.0190579763991
0.380931240893 0.9144 0.0188062053008
0.383495746429 0.9144 0.018544458562
0.386059554401 0.9144 0.0182926874637
0.388624059937 0.9144 0.0180309407249
0.391188565473 0.9144 0.0177691939861
0.393753071009 0.9144 0.0175074472473
0.396317576545 0.9144 0.0172457005085
0.398882779646 0.9144 0.0169739781292
0.401447285182 0.9144 0.0167122313904
0.404012488283 0.9144 0.0164405090111
0.406577691384 0.9144 0.0161687866318
0.409142894485 0.9144 0.0158970642525
0.411708097585 0.9144 0.0156253418732
0.414273300686 0.9144 0.0153536194938
0.416829225711 0.9144 0.0150712239093
0.419394428812 0.9144 0.01479950153
0.421960329478 0.9144 0.0145178035102
0.424516254503 0.9144 0.0142354079256
0.427082155168 0.9144 0.0139537099058
0.429648753399 0.9144 0.0136620362455
0.432204678424 0.9144 0.013379640661
0.434771276654 0.9144 0.0130879670007
0.437327201679 0.9144 0.0128055714161
0.43989379991 0.9144 0.0125138977558
0.442450422499 0.9144 0.0122215265307
0.445017718294 0.9144 0.0119198772299
0.447574340884 0.9144 0.0116275060049
0.450141636679 0.9144 0.0113258567041
0.452698259269 0.9144 0.011033485479
0.455255579424 0.9144 0.0107311386135
0.457822875219 0.9144 0.0104294893127
0.460380892938 0.9144 0.0101171668066
0.462938213093 0.9144 0.00981481994105
0.465496230812 0.9144 0.00950249743499
0.468063526607 0.9144 0.00920084813418
0.470621544326 0.9144 0.00888852562812
0.473179562045 0.9144 0.00857620312207
0.475738277329 0.9144 0.00825390497551
0.478296295049 0.9144 0.00794158246946
0.480855010333 0.9144 0.0076192843229
0.483413028052 0.9144 0.00730696181684
0.485971743336 0.9144 0.00698466367029
0.48853045862 0.9144 0.00666236552373
0.491089871469 0.9144 0.00633009173667
0.493638611112 0.9144 0.00600709602538
0.496198023961 0.9144 0.00567482223832
0.49875743681 0.9144 0.00534254845126
0.501316849659 0.9144 0.0050102746642
0.503866286867 0.9144 0.0046773033124
0.506425699716 0.9144 0.00434502952534
0.508985810129 0.9144 0.00400278009778
0.511535944902 0.9144 0.00365983310548
0.514096055316 0.9144 0.00331758367791
0.516646190089 0.9144 0.00297463668561
0.519206300502 0.9144 0.00263238725805
0.52175713284 0.9144 0.00227946462525
0.524317243254 0.9144 0.00193721519769
0.526868075591 0.9144 0.00158429256488
0.529418907929 0.9144 0.00123136993208
0.531069352097 0.9144 0.000995925566694

ZONE T="SLICE_Y_0p9144_BINS07_KS_1mm_SINGLE_LAYER"
0.532101516288 0.9144 0.000857588719358
0.532749723186 0.9144 0.000762573895518
0.533144353684 0.9144 0.000709973796257
0.533397930084 0.9144 0.000667559071678
0.533404208167 0.9144 0.000577778307154
0.533399813045 0.9144 0.000497275618396
0.533396115487 0.9144 0.000406797289135
0.533402393569 0.9144 0.000317016524612
0.533398696011 0.9144 0.000226538195351
0.533404974094 0.9144 0.000136757430828
0.533401276536 0.9144 4.62791015668e-05
0.533397578978 0.9144 -4.4199227694e-05
0.533403857061 0.9144 -0.000133979992217
0.533400159503 0.9144 -0.000224458321478
0.533396461945 0.9144 -0.000314936650739
0.533402740028 0.9144 -0.000404717415262
0.53339904247 0.9144 -0.000495195744523
0.533405320553 0.9144 -0.000584976509047
0.533401622995 0.9144 -0.000675454838307
0.533142953906 0.9144 -0.000703567161984
0.532746020981 0.9144 -0.000761396672989
0.532101092172 0.9144 -0.000856616583436
0.531068508512 0.9144 -0.000998992799648
0.529420225401 0.9144 -0.00122452059159
0.526869041957 0.9144 -0.00158335625816
0.524327136589 0.9144 -0.00193151871949
0.521775255581 0.9144 -0.00228037874556
0.519223374572 0.9144 -0.00262923877162
0.516671493563 0.9144 -0.00297809879769
0.51411891499 0.9144 -0.00331698318325
0.511566336417 0.9144 -0.00365586756882
0.509013757843 0.9144 -0.00399475195438
0.50646117927 0.9144 -0.00433363633995
0.503908600696 0.9144 -0.00467252072551
0.501356022123 0.9144 -0.00501140511107
0.498802745985 0.9144 -0.00534031385613
0.496249469847 0.9144 -0.0056692226012
0.493696193709 0.9144 -0.00599813134626
0.491142917571 0.9144 -0.00632704009132
0.488588943868 0.9144 -0.00664597319588
0.48603566773 0.9144 -0.00697488194094
0.483481694027 0.9144 -0.0072938150455
0.480927720324 0.9144 -0.00761274815006
0.478373746621 0.9144 -0.00793168125462
0.475819772918 0.9144 -0.00825061435917
0.473265101651 0.9144 -0.00855957182323
0.470711127948 0.9144 -0.00887850492779
0.46815645668 0.9144 -0.00918746239185
0.465601785413 0.9144 -0.0094964198559
0.463047114145 0.9144 -0.00980537731996
0.460491745313 0.9144 -0.0101043591435
0.457927098405 0.9144 -0.0104140141723
0.455371729572 0.9144 -0.0107129959959
0.45281636074 0.9144 -0.0110119778194
0.450260991908 0.9144 -0.011310959643
0.447705623075 0.9144 -0.0116099414665
0.445150254243 0.9144 -0.0119089232901
0.442594187846 0.9144 -0.0121979294731
0.440028843373 0.9144 -0.0124976088614
0.437472776976 0.9144 -0.0127866150445
0.434916710579 0.9144 -0.0130756212275
0.432360644182 0.9144 -0.0133646274106
0.429804577785 0.9144 -0.0136536335936
0.427237838183 0.9144 -0.0139333617009
0.424681074221 0.9144 -0.0142123922435
0.422125007824 0.9144 -0.0145013984265
0.419568243862 0.9144 -0.0147804289691
0.4170114799 0.9144 -0.0150594595116
0.414444042733 0.9144 -0.0153292119784
0.411887278771 0.9144 -0.0156082425209
0.409329817245 0.9144 -0.015877297423
0.406773053283 0.9144 -0.0161563279655
0.404205616116 0.9144 -0.0164260804323
0.40164815459 0.9144 -0.0166951353344
0.399089995498 0.9144 -0.0169542145959
0.396532533972 0.9144 -0.0172232694979
0.39396439924 0.9144 -0.0174830463242
0.391406937713 0.9144 -0.0177521012263
0.388848778622 0.9144 -0.0180111804878
0.38628064389 0.9144 -0.0182709573141
0.383721787234 0.9144 -0.0185200609351
0.381163628143 0.9144 -0.0187791401967
0.378594795847 0.9144 -0.0190289413825
0.376036636755 0.9144 -0.019288020644
0.373477780099 0.9144 -0.019537124265
0.370908947803 0.9144 -0.0197869254508
0.368349393582 0.9144 -0.0200260534314
0.365790536926 0.9144 -0.0202751570524
0.363221007065 0.9144 -0.0205149825977
0.360662150409 0.9144 -0.0207640862187
0.358102596188 0.9144 -0.0210032141993
0.355532368762 0.9144 -0.021233064104
0.352972814541 0.9144 -0.0214721920846
0.350413260321 0.9144 -0.0217113200651
0.347843032895 0.9144 -0.0219411699699
0.345282781109 0.9144 -0.0221703223099
0.342712553683 0.9144 -0.0224001722147
0.340152301898 0.9144 -0.0226293245547
0.337591352548 0.9144 -0.0228485012542
0.335021125122 0.9144 -0.023078351159
0.332460175771 0.9144 -0.0232975278586
0.329899226421 0.9144 -0.0235167045581
0.32732830143 0.9144 -0.0237365788224
0.324766654515 0.9144 -0.0239457798814
0.322195729525 0.9144 -0.0241656541457
0.31963408261 0.9144 -0.0243748552047
0.317062460054 0.9144 -0.0245847538285
0.314500813139 0.9144 -0.0247939548875
0.31193846866 0.9144 -0.024993180306
0.309366846104 0.9144 -0.0252030789298
0.306804501624 0.9144 -0.0254023043483
0.304232181504 0.9144 -0.0256022273316
0.30166913946 0.9144 -0.0257914771096
0.29910679498 0.9144 -0.0259907025281
0.296533777295 0.9144 -0.0261806498709
0.293970735251 0.9144 -0.0263698996489
0.291397717566 0.9144 -0.0265598469917
0.288834675521 0.9144 -0.0267490967697
0.286260960272 0.9144 -0.026929068472
0.283697220663 0.9144 -0.0271083426095
0.281133481053 0.9144 -0.027287616747
0.278559068239 0.9144 -0.0274576128088
0.27599532863 0.9144 -0.0276368869463
0.273420915815 0.9144 -0.027806883008
0.270856478642 0.9144 -0.0279761815051
0.268281368262 0.9144 -0.0281362019263
0.265716233524 0.9144 -0.0282955247828
0.263151098785 0.9144 -0.0284548476394
0.260575988406 0.9144 -0.0286148680606
0.258010853667 0.9144 -0.0287741909171
0.255435045723 0.9144 -0.0289242356979
0.25286921342 0.9144 -0.0290735829139
0.250302683552 0.9144 -0.0292129544894
0.247726875608 0.9144 -0.0293629992702
0.24516034574 0.9144 -0.0295023708457
0.242583142667 0.9144 -0.0296324643454
0.240016612798 0.9144 -0.0297718359209
0.237449385366 0.9144 -0.0299012318559
0.234871484728 0.9144 -0.0300213497152
0.232304257295 0.9144 -0.0301507456502
0.229726356657 0.9144 -0.0302708635094
0.227158431659 0.9144 -0.0303902838039
0.224589809097 0.9144 -0.0304997284579
0.222021186534 0.9144 -0.0306091731119
0.219442588331 0.9144 -0.0307193153307
0.216873268204 0.9144 -0.0308187843442
0.214293972437 0.9144 -0.0309189509224
0.21172465231 0.9144 -0.0310184199359
0.209154634618 0.9144 -0.0311079133089
0.206583919361 0.9144 -0.0311874310414
0.204003926029 0.9144 -0.0312776219792
0.201433210773 0.9144 -0.0313571397117
0.198862495516 0.9144 -0.0314366574442
0.196291082695 0.9144 -0.0315061995362
0.193719669873 0.9144 -0.0315757416281
0.191137583847 0.9144 -0.0316360056444
0.188565473461 0.9144 -0.0316955720959
0.18599266551 0.9144 -0.0317451629069
0.183419857559 0.9144 -0.0317947537178
0.180847049609 0.9144 -0.0318443445288
0.178274241658 0.9144 -0.0318939353398
0.175701433707 0.9144 -0.0319435261508
0.173127928192 0.9144 -0.0319831413213
0.170553725111 0.9144 -0.0320127808513
0.167978824466 0.9144 -0.0320324447408
0.165403923822 0.9144 -0.0320521086302
0.162828325612 0.9144 -0.0320617968792
0.160252029837 0.9144 -0.0320615094877
0.157675734063 0.9144 -0.0320612220962
0.155109413929 0.9144 -0.0320602371399
0.152533815719 0.9144 -0.0320699253889
0.14995682238 0.9144 -0.0320596623569
0.147379829041 0.9144 -0.0320493993248
0.144811416213 0.9144 -0.0320184874471
0.142233027744 0.9144 -0.031988273134
0.139653941711 0.9144 -0.0319480831805
0.137084133753 0.9144 -0.0318972200217
0.134514325795 0.9144 -0.0318463568629
0.131933844633 0.9144 -0.0317862156284
0.12936333911 0.9144 -0.0317253768291
0.126792136023 0.9144 -0.0316545623893
0.124212352425 0.9144 -0.0316043967953
0.121643242032 0.9144 -0.031563509277
0.119062063305 0.9144 -0.031493392402
0.116488767523 0.9144 -0.0313926510407
0.113916169307 0.9144 -0.0313018853199
0.111323619809 0.9144 -0.0312125147286
0.108850080433 0.9144 -0.0311047977199
0.106496946307 0.9144 -0.0309986855749
0.104253544227 0.9144 -0.0308849002178
0.102120571758 0.9144 -0.0307734172891
0.100088053258 0.9144 -0.0306649343535
0.0981453155221 0.9144 -0.0305501733352
0.0963030317565 0.9144 -0.0304384123101
0.09455122632 0.9144 -0.0303303488429
0.0928792260077 0.9144 -0.0302167048577
0.091287728384 0.9144 -0.0301074559952
0.0897667578086 0.9144 -0.03000329982
0.088326289922 0.9144 -0.0299035387674
0.0868751488302 0.9144 -0.029794499639
0.0854339833788 0.9144 -0.0296847629459
0.0839921203627 0.9144 -0.0295650506123
0.0825502573466 0.9144 -0.0294453382787
0.0811083943305 0.9144 -0.0293256259451
0.0796658337497 0.9144 -0.029195937971
0.0782146926578 0.9144 -0.0290868988427
0.0767749223359 0.9144 -0.0289971134306
0.0753251763736 0.9144 -0.0289080255832
0.0738833133575 0.9144 -0.0287883132496
0.0724314747009 0.9144 -0.0286692984807
0.07098891412 0.9144 -0.0285396105066
0.0695456559745 0.9144 -0.028399946892
0.0681017002641 0.9144 -0.0282503076369
0.0666584421186 0.9144 -0.0281106440223
0.0652158815377 0.9144 -0.0279809560482
0.0637726233922 0.9144 -0.0278412924336
0.0623286676819 0.9144 -0.0276916531785
0.0608840144068 0.9144 -0.0275320382829
0.0594393611318 0.9144 -0.0273724233873
0.057994010292 0.9144 -0.0272028328511
0.0565586350927 0.9144 -0.0270325447503
0.0551125866882 0.9144 -0.0268529785737
0.0536665382837 0.9144 -0.0266734123971
0.0522204898792 0.9144 -0.0264938462204
0.0507844171151 0.9144 -0.0263135824791
0.0493376711459 0.9144 -0.026124040662
0.0478902276119 0.9144 -0.0259245232043
0.0464527597184 0.9144 -0.025724308182
0.0450053161844 0.9144 -0.0255247907243
0.0435499897041 0.9144 -0.025355897753
0.0420946632238 0.9144 -0.0251870047816
0.0406386391788 0.9144 -0.0250081361697
0.0391833126985 0.9144 -0.0248392431983
0.0377265910888 0.9144 -0.0246503989459
0.0362677767848 0.9144 -0.0244316277721