TITLE = "TC_NACA0012_3933_L2_finalIceShape_V1 | NACA0012 coordinates rotated +4 degrees about X=0.13335 m"
AUXDATA NUM_LAYERS = "insert the number of total ice layers"
VARIABLES = "X_ICED" "Y_ICED" "Z_ICED"

ZONE T="SLICE_Y_0p9144_BINS01_KS_0p5334mm_SINGLE_LAYER"
0.53340476436 0.9144 -3.59910094617e-06
0.533402461931 0.9144 -0.000114028711212
0.533400159503 0.9144 -0.000224458321478
0.533397857075 0.9144 -0.000334887931744
0.533395554646 0.9144 -0.00044531754201
0.533403227858 0.9144 -0.000555049587539
0.533401622995 0.9144 -0.000675454838307
0.533043895066 0.9144 -0.000720518449861
0.532468098176 0.9144 -0.000800879766643
0.531555222203 0.9144 -0.000934885206005
0.530095778696 0.9144 -0.00113718362744
0.527752688574 0.9144 -0.00146141915351
0.524009311223 0.9144 -0.00197379207209
0.520275909512 0.9144 -0.00248546742594
0.516542507801 0.9144 -0.00299714277978
0.512808408526 0.9144 -0.00349884249312
0.509073611686 0.9144 -0.00399056656596
0.505338814846 0.9144 -0.00448229063879
0.501604018006 0.9144 -0.00497401471163
0.497869221166 0.9144 -0.00546573878447
0.494133726761 0.9144 -0.0059474872168
0.490387559151 0.9144 -0.00641995757337
0.486651367182 0.9144 -0.00689173036521
0.482915175212 0.9144 -0.00736350315704
0.479178983243 0.9144 -0.00783527594887
0.475442093709 0.9144 -0.0082970731002
0.47170450661 0.9144 -0.00874889461103
0.467957641435 0.9144 -0.0092113893271
0.464220054336 0.9144 -0.00966321083792
0.460481769672 0.9144 -0.0101050567082
0.456734206933 0.9144 -0.0105575757838
0.452995922269 0.9144 -0.0109994216541
0.449256940041 0.9144 -0.011431291884
0.445507982172 0.9144 -0.0118638596785
0.441768999943 0.9144 -0.0122957299083
0.438030017715 0.9144 -0.0127276001382
0.434280362281 0.9144 -0.0131501922922
0.430539984923 0.9144 -0.013562111241
0.42679032949 0.9144 -0.0139847033951
0.423049952132 0.9144 -0.0143966223439
0.419309574774 0.9144 -0.0148085412927
0.415558524211 0.9144 -0.0152111821658
0.411817449288 0.9144 -0.0156131254741
0.408066398725 0.9144 -0.0160157663471
0.404324626237 0.9144 -0.016407734015
0.400572878109 0.9144 -0.0168003992475
0.396831105622 0.9144 -0.0171923669153
0.393078659929 0.9144 -0.0175750565074
0.389336189877 0.9144 -0.0179570485347
0.385583744185 0.9144 -0.0183397381267
0.381830600927 0.9144 -0.0187124520783
0.37808743331 0.9144 -0.0190844684651
0.374333592488 0.9144 -0.0194472067761
0.370589727307 0.9144 -0.0198092475224
0.366835886485 0.9144 -0.0201719858335
0.363082045663 0.9144 -0.0205347241445
0.359337482916 0.9144 -0.0208867892503
0.355582246965 0.9144 -0.0212295762803
0.351827708578 0.9144 -0.0215823389509
0.348081750702 0.9144 -0.0219144527757
0.34432651475 0.9144 -0.0222572398057
0.340570581234 0.9144 -0.0225900511952
0.336824623358 0.9144 -0.02292216502
0.333067992277 0.9144 -0.0232450007691
0.329311361196 0.9144 -0.0235678365181
0.325564008191 0.9144 -0.0238799990619
0.321806679545 0.9144 -0.0241928591704
0.318049350899 0.9144 -0.0245057192789
0.314301300329 0.9144 -0.0248079061822
0.310543274119 0.9144 -0.0251107906503
0.306784550343 0.9144 -0.0254036994778
0.303025826568 0.9144 -0.0256966083053
0.299276380869 0.9144 -0.0259788439276
0.295516959529 0.9144 -0.0262617771146
0.291756840624 0.9144 -0.0265347346611
0.287996721719 0.9144 -0.0268076922076
0.28424588089 0.9144 -0.0270699765489
0.280485064421 0.9144 -0.0273329584549
0.276723550387 0.9144 -0.0275859647205
0.272962036352 0.9144 -0.027838970986
0.269209800394 0.9144 -0.0280813040462
0.26544689123 0.9144 -0.0283143590307
0.261683982066 0.9144 -0.0285474140153
0.257931048543 0.9144 -0.028779771435
0.25416674425 0.9144 -0.0289928751385
0.250402439957 0.9144 -0.029205978842
0.246638135664 0.9144 -0.0294190825455
0.242883109446 0.9144 -0.0296215130438
0.239117410024 0.9144 -0.0298146654663
0.235351013036 0.9144 -0.0299978422483
0.23159459169 0.9144 -0.0301803214655
0.227827497137 0.9144 -0.030353522607
0.224070378226 0.9144 -0.0305260261838
0.220301888544 0.9144 -0.0306792760443
0.216533398863 0.9144 -0.0308325259048
0.212774187257 0.9144 -0.03097510256
0.209004302446 0.9144 -0.0311084011395
0.205244393275 0.9144 -0.0312410021542
0.201473113335 0.9144 -0.0313543494527
0.197711809035 0.9144 -0.0314669991864
0.193949109605 0.9144 -0.0315596976392
0.190176434535 0.9144 -0.0316530936567
0.186413037541 0.9144 -0.0317358164689
0.182648942982 0.9144 -0.0318085636406
0.178874175218 0.9144 -0.0318720327366
0.175107987964 0.9144 -0.0319148529868
0.171341800711 0.9144 -0.031957673237
0.167574915893 0.9144 -0.0319905178467
0.163806635946 0.9144 -0.0320034111754
0.160038355998 0.9144 -0.0320163045042
0.156278656562 0.9144 -0.0320085489871
0.15250828392 0.9144 -0.0319915153943
0.148736516149 0.9144 -0.0319545305205
0.144974724019 0.9144 -0.031916848082
0.141201561118 0.9144 -0.0318599119272
0.137436978729 0.9144 -0.0317823269266
0.133671698774 0.9144 -0.0316947662856
0.129905721255 0.9144 -0.031597230004
0.126138348607 0.9144 -0.0314797424415
0.122500659285 0.9144 -0.0313531865373
0.119042531492 0.9144 -0.0312140744679
0.115744711512 0.9144 -0.0310737770032
0.112596526139 0.9144 -0.0309230160674
0.109608648579 0.9144 -0.0307710697364
0.106760429987 0.9144 -0.030609357499
0.104052567926 0.9144 -0.0304478549957
0.101465111115 0.9144 -0.0302879573562
0.0990073376316 0.9144 -0.030118991375
0.0966699693986 0.9144 -0.0299516302575
0.094443030776 0.9144 -0.0297865715684
0.0923165461231 0.9144 -0.0296245128724
0.0902997935157 0.9144 -0.0294547809643
0.0883742168023 0.9144 -0.0292987222546
0.0864572205999 0.9144 -0.0291220146991
0.0845309463218 0.9144 -0.0289559803489
0.0826132525547 0.9144 -0.028769297153
0.0806955587876 0.9144 -0.028582613957
0.0787771674558 0.9144 -0.0283859551205
0.0768580785592 0.9144 -0.0281793206435
0.0749389896627 0.9144 -0.0279726861666
0.0730185056366 0.9144 -0.0277461004086
0.0711079972511 0.9144 -0.0275188170859
0.0691875132251 0.9144 -0.0272922313279
0.06727560971 0.9144 -0.0270449967242
0.0653630086303 0.9144 -0.0267877864799
0.0634511051153 0.9144 -0.0265405518762
0.0615334113482 0.9144 -0.0263538686802
0.0598605720991 0.9144 -0.0268016508222
0.0587628275279 0.9144 -0.0285925882461
0.0561136976292 0.9144 -0.0301311300168
0.0533740940489 0.9144 -0.0302324819903
0.0512508874855 0.9144 -0.0302606580286
0.0491652126935 0.9144 -0.0299654281824
0.0472099187928 0.9144 -0.0296711056351
0.0452604151441 0.9144 -0.0293162316801
0.0433201895713 0.9144 -0.0289506845198
0.0413892420742 0.9144 -0.0285744641543
0.0394568994476 0.9144 -0.0281782925078
0.037513186051 0.9144 -0.027762867145
0.0355780531655 0.9144 -0.0273267929364
0.03363154951 0.9144 -0.0268714650116
0.0316929288008 0.9144 -0.0263855126006
0.0297621910378 0.9144 -0.0258689357033
0.0278293605807 0.9144 -0.0253224318845
0.0259051106346 0.9144 -0.0247552792199
0.0239773728648 0.9144 -0.0241382483529
0.0220468448361 0.9144 -0.0234813149238
0.0201334778294 0.9144 -0.0227830838033
0.0182272962042 0.9144 -0.022044252556
0.0163162316259 0.9144 -0.0212355918252
0.0144309085807 0.9144 -0.0203649845571
0.0125499806581 0.9144 -0.0194138746003
0.0107047699091 0.9144 -0.0184001205415
0.00888320799891 0.9144 -0.017294493024
0.00710454864389 0.9144 -0.0160856212778
0.00537018697349 0.9144 -0.0147934565839
0.00370795721499 0.9144 -0.0133859793265
0.0022679818065 0.9144 -0.012003058207
0.00101105575075 0.9144 -0.0106574591246
-6.65185101397e-05 0.9144 -0.00943966040881
-0.000999760585007 0.9144 -0.00842228180194
-0.00182648034165 0.9144 -0.00763804048451
-0.00270028804186 0.9144 -0.00689718955277
-0.00362815933301 0.9144 -0.00609997260171
-0.00463283575504 0.9144 -0.00520788219878
-0.00569555142227 0.9144 -0.00405921540173
-0.00674647685116 0.9144 -0.0026490892574
-0.00769931910087 0.9144 -0.000921347480643
-0.00844853151432 0.9144 0.00119153698367
-0.00883031845502 0.9144 0.00364087132833
-0.00869225505649 0.9144 0.00639721646237
-0.00774176965465 0.9144 0.00929056702891
-0.00581994956619 0.9144 0.0123420597042
-0.00262641319052 0.9144 0.0144098666143
0.00233155314905 0.9144 0.0157590032922
0.0066547621116 0.9144 0.0128534974385
0.00648300587149 0.9144 0.0104356265168
0.00797788845521 0.9144 0.0109912577442
0.00961166407902 0.9144 0.0119976757543
0.0112909227827 0.9144 0.0129270788993
0.0130049913611 0.9144 0.0137887452551
0.0147424990442 0.9144 0.0146019285377
0.016503445832 0.9144 0.0153666287474
0.0182878317244 0.9144 0.016082845884
0.0200849835164 0.9144 0.0167598580233
0.021894203643 0.9144 0.0174076408059
0.0237055164638 0.9144 0.0180254966669
0.0255388732599 0.9144 0.018614820736
0.0273743227502 0.9144 0.0191742178835
0.0292218405752 0.9144 0.0197043856742
0.0310707535296 0.9144 0.020214602184
0.0329203640488 0.9144 0.0207148430532
0.0347820429028 0.9144 0.0211858545657
0.0366550925267 0.9144 0.0216376123619
0.0385195616395 0.9144 0.0220687213123
0.0403947039576 0.9144 0.022490552187
0.0422712414052 0.9144 0.0228924317807
0.0441491739823 0.9144 0.0232743600934
0.0460370821998 0.9144 0.0236569859708
0.0479171074711 0.9144 0.0240089873619
0.0498071083829 0.9144 0.0243616863179
0.0516985044241 0.9144 0.0246944339928
0.0535905980301 0.9144 0.0250172060272
0.0554833892008 0.9144 0.0253300024211
0.0573868535768 0.9144 0.0256335207392
0.059281039877 0.9144 0.0259263658521
0.0611759237419 0.9144 0.0262092353245
0.0630814808121 0.9144 0.0264828267211
0.0649784573712 0.9144 0.026735769272
0.0668854095709 0.9144 0.0269894093876
0.0687930593353 0.9144 0.0272330738627
0.0706907334592 0.9144 0.0274760407731
0.072599778353 0.9144 0.0276997539672
0.0745088232469 0.9144 0.0279234671613
0.0764185657055 0.9144 0.0281372047149
0.0783290057288 0.9144 0.028340966628
0.0802301676764 0.9144 0.0285340553359
0.0821413052645 0.9144 0.0287278416085
0.0840531404173 0.9144 0.0289116522406
0.0859656731348 0.9144 0.0290854872322
0.0878789034171 0.9144 0.0292493465833
0.0897322798564 0.9144 0.029409020546
0.0916654614197 0.9144 0.0295742750266
0.093709770158 0.9144 0.0297272514382
0.0958431620961 0.9144 0.029896481573
0.0980976568496 0.9144 0.0300541312037
0.100451908008 0.9144 0.0302187564817
0.102936540058 0.9144 0.0303824744609
0.105542274924 0.9144 0.0305346119358
0.108277693115 0.9144 0.0306958177524
0.111144189763 0.9144 0.0308461406295
0.114161018584 0.9144 0.0309969513372
0.117328877141 0.9144 0.031138274235
0.120657043511 0.9144 0.031280782528
0.124146215258 0.9144 0.0314145005758
0.127817041229 0.9144 0.0315308478674
0.131608272451 0.9144 0.0316455902954
0.135390923161 0.9144 0.0317396838776
0.139174271436 0.9144 0.0318238018193
0.142968990482 0.9144 0.0318886660447
0.146755129016 0.9144 0.0319328814244
0.15054126755 0.9144 0.0319770968041
0.154328801214 0.9144 0.0320013609028
0.158117032442 0.9144 0.032015649361
0.16189668316 0.9144 0.0320092889735
0.165686309517 0.9144 0.0320036261506
0.169477331005 0.9144 0.0319780120468
0.173259074416 0.9144 0.0319417247378
0.177051491033 0.9144 0.0318961593529
0.180834629574 0.9144 0.0318399207629
0.18461846568 0.9144 0.0317737065323
0.188412974991 0.9144 0.031698214226
0.192198903791 0.9144 0.0316020730739
0.195984832591 0.9144 0.0315059319218
0.199770761391 0.9144 0.0314097907697
0.203558085321 0.9144 0.0312936983366
0.207336131175 0.9144 0.0311669326983
0.211124850234 0.9144 0.0310308889842
0.214903593652 0.9144 0.0308941477054
0.218693010276 0.9144 0.0307481283508
0.222473148824 0.9144 0.030591435791
0.226263960577 0.9144 0.0304254651554
0.23004479669 0.9144 0.030258796955
0.233827027932 0.9144 0.0300721774737
0.237609259174 0.9144 0.0298855579924
0.241391490416 0.9144 0.029698938511
0.245174419223 0.9144 0.0295023433892
0.248958045595 0.9144 0.0292957726268
0.25273239389 0.9144 0.0290785286593
0.256516717827 0.9144 0.0288619822564
0.260301739328 0.9144 0.0286354602131
0.264077482753 0.9144 0.0283982649645
0.267863201819 0.9144 0.0281617672806
0.271638945244 0.9144 0.027924572032
0.275415386235 0.9144 0.0276774011429
0.279192524789 0.9144 0.0274202546133
0.282969663344 0.9144 0.0271631080838
0.286747499464 0.9144 0.0268959859137
0.290526033148 0.9144 0.0266188881031
0.294303869268 0.9144 0.026351765933
0.298083100517 0.9144 0.0260646924819
0.301862331766 0.9144 0.0257776190308
0.305631587374 0.9144 0.0254898480149
0.309411516188 0.9144 0.0251927989233
0.313191445002 0.9144 0.0248957498317
0.31696209574 0.9144 0.0245880275349
0.320732746478 0.9144 0.024280305238
0.324513372856 0.9144 0.0239732805059
0.328284721159 0.9144 0.0236555825686
0.332056767026 0.9144 0.0233279089907
0.335828812894 0.9144 0.0230002354129
0.339600858761 0.9144 0.022672561835
0.343372904629 0.9144 0.0223448882572
0.347145648061 0.9144 0.0220072390388
0.350919089058 0.9144 0.0216596141799
0.354692530055 0.9144 0.0213119893211
0.358465971052 0.9144 0.0209643644622
0.362230133973 0.9144 0.0206060663981
0.366004272535 0.9144 0.0202484658988
0.369778411097 0.9144 0.0198908653994
0.373543271583 0.9144 0.0195225916948
0.377318107709 0.9144 0.019155015555
0.381082968195 0.9144 0.0187867418504
0.384848526246 0.9144 0.0184084925053
0.388624059937 0.9144 0.0180309407249
0.392390315552 0.9144 0.0176427157393
0.396155873603 0.9144 0.0172644663942
0.399922826783 0.9144 0.0168662657681
0.403689082398 0.9144 0.0164780407825
0.407456035578 0.9144 0.0160798401564
0.411222988759 0.9144 0.0156816395303
0.414990639503 0.9144 0.0152734632637
0.418748314608 0.9144 0.0148645894323
0.422515965353 0.9144 0.0144564131657
0.426284313662 0.9144 0.0140382612586
0.430042686331 0.9144 0.0136194117868
0.433811034641 0.9144 0.0132012598796
0.437570104875 0.9144 0.0127724347673
0.441339150749 0.9144 0.0123443072197
0.445098220983 0.9144 0.0119154821073
0.448857988782 0.9144 0.0114766813545
0.45261775658 0.9144 0.0110378806016
0.456387500019 0.9144 0.0105997774135
0.460147965383 0.9144 0.0101510010202
0.463908430746 0.9144 0.00970222462679
0.467659618034 0.9144 0.0092427750282
0.471420780962 0.9144 0.00878402299434
0.47518194389 0.9144 0.00832527096048
0.478943804383 0.9144 0.00785654328612
0.48269499167 0.9144 0.00739709368752
0.486457549728 0.9144 0.00691839037266
0.490210132145 0.9144 0.00643898949306
0.493972690202 0.9144 0.00596028617819
0.497725272619 0.9144 0.00548088529859
0.501478552601 0.9144 0.00499150877849
0.505241808223 0.9144 0.00450282982312
0.50899578577 0.9144 0.00400347766251
0.512749763316 0.9144 0.00350412550191
0.516504438428 0.9144 0.0029947977008
0.520249137898 0.9144 0.00248477233495
0.52400381301 0.9144 0.00197544453384
0.527749210045 0.9144 0.00145544352749
0.530097041749 0.9144 0.00113844780245
0.531555158488 0.9144 0.000929652269065
0.532476195504 0.9144 0.000803593490622
0.533043202149 0.9144 0.000722949429888
0.533397930084 0.9144 0.000667559071678
0.533395627656 0.9144 0.000557129461412
0.533403300868 0.9144 0.000447397415883
0.53340099844 0.9144 0.000336967805617
0.533398696011 0.9144 0.000226538195351
0.533396393583 0.9144 0.000116108585085
0.53340476436 0.9144 -3.59910094617e-06

ZONE T="SLICE_Y_0p9144_BINS03_KS_0p5334mm_SINGLE_LAYER"
0.53340476436 0.9144 -3.59910094617e-06
0.533402461931 0.9144 -0.000114028711212
0.533400159503 0.9144 -0.000224458321478
0.533397857075 0.9144 -0.000334887931744
0.533395554646 0.9144 -0.00044531754201
0.533403227858 0.9144 -0.000555049587539
0.533401622995 0.9144 -0.000675454838307
0.533043895066 0.9144 -0.000720518449861
0.532468098176 0.9144 -0.000800879766643
0.531555222203 0.9144 -0.000934885206005
0.530095778696 0.9144 -0.00113718362744
0.527752688574 0.9144 -0.00146141915351
0.524009311223 0.9144 -0.00197379207209
0.520275909512 0.9144 -0.00248546742594
0.516542507801 0.9144 -0.00299714277978
0.512808408526 0.9144 -0.00349884249312
0.509073611686 0.9144 -0.00399056656596
0.505338814846 0.9144 -0.00448229063879
0.501604018006 0.9144 -0.00497401471163
0.497869221166 0.9144 -0.00546573878447
0.494133726761 0.9144 -0.0059474872168
0.490387559151 0.9144 -0.00641995757337
0.486651367182 0.9144 -0.00689173036521
0.482915175212 0.9144 -0.00736350315704
0.479178983243 0.9144 -0.00783527594887
0.475442093709 0.9144 -0.0082970731002
0.47170450661 0.9144 -0.00874889461103
0.467957641435 0.9144 -0.0092113893271
0.464220054336 0.9144 -0.00966321083792
0.460481769672 0.9144 -0.0101050567082
0.456734206933 0.9144 -0.0105575757838
0.452995922269 0.9144 -0.0109994216541
0.449256940041 0.9144 -0.011431291884
0.445507982172 0.9144 -0.0118638596785
0.441768999943 0.9144 -0.0122957299083
0.438030017715 0.9144 -0.0127276001382
0.434280362281 0.9144 -0.0131501922922
0.430539984923 0.9144 -0.013562111241
0.42679032949 0.9144 -0.0139847033951
0.423049952132 0.9144 -0.0143966223439
0.419309574774 0.9144 -0.0148085412927
0.415558524211 0.9144 -0.0152111821658
0.411817449288 0.9144 -0.0156131254741
0.408066398725 0.9144 -0.0160157663471
0.404324626237 0.9144 -0.016407734015
0.400572878109 0.9144 -0.0168003992475
0.396831105622 0.9144 -0.0171923669153
0.393078659929 0.9144 -0.0175750565074
0.389336189877 0.9144 -0.0179570485347
0.385583744185 0.9144 -0.0183397381267
0.381830600927 0.9144 -0.0187124520783
0.37808743331 0.9144 -0.0190844684651
0.374333592488 0.9144 -0.0194472067761
0.370589727307 0.9144 -0.0198092475224
0.366835886485 0.9144 -0.0201719858335
0.363082045663 0.9144 -0.0205347241445
0.359337482916 0.9144 -0.0208867892503
0.355582246965 0.9144 -0.0212295762803
0.351827708578 0.9144 -0.0215823389509
0.348081750702 0.9144 -0.0219144527757
0.34432651475 0.9144 -0.0222572398057
0.340570581234 0.9144 -0.0225900511952
0.336824623358 0.9144 -0.02292216502
0.333067992277 0.9144 -0.0232450007691
0.329311361196 0.9144 -0.0235678365181
0.325564008191 0.9144 -0.0238799990619
0.321806679545 0.9144 -0.0241928591704
0.318049350899 0.9144 -0.0245057192789
0.314301300329 0.9144 -0.0248079061822
0.310543274119 0.9144 -0.0251107906503
0.306784550343 0.9144 -0.0254036994778
0.303025826568 0.9144 -0.0256966083053
0.299276380869 0.9144 -0.0259788439276
0.295516959529 0.9144 -0.0262617771146
0.291756840624 0.9144 -0.0265347346611
0.287996721719 0.9144 -0.0268076922076
0.28424588089 0.9144 -0.0270699765489
0.280485064421 0.9144 -0.0273329584549
0.276723550387 0.9144 -0.0275859647205
0.272962036352 0.9144 -0.027838970986
0.269209800394 0.9144 -0.0280813040462
0.26544689123 0.9144 -0.0283143590307
0.261683982066 0.9144 -0.0285474140153
0.257931048543 0.9144 -0.028779771435
0.25416674425 0.9144 -0.0289928751385
0.250402439957 0.9144 -0.029205978842
0.246638135664 0.9144 -0.0294190825455
0.242883109446 0.9144 -0.0296215130438
0.239117410024 0.9144 -0.0298146654663
0.235351013036 0.9144 -0.0299978422483
0.23159459169 0.9144 -0.0301803214655
0.227827497137 0.9144 -0.030353522607
0.224070378226 0.9144 -0.0305260261838
0.220301888544 0.9144 -0.0306792760443
0.216533398863 0.9144 -0.0308325259048
0.212774187257 0.9144 -0.03097510256
0.209004302446 0.9144 -0.0311084011395
0.205244393275 0.9144 -0.0312410021542
0.201473113335 0.9144 -0.0313543494527
0.197711809035 0.9144 -0.0314669991864
0.193949109605 0.9144 -0.0315596976392
0.190176434535 0.9144 -0.0316530936567
0.186413037541 0.9144 -0.0317358164689
0.182648942982 0.9144 -0.0318085636406
0.178874175218 0.9144 -0.0318720327366
0.175107987964 0.9144 -0.0319148529868
0.171341800711 0.9144 -0.031957673237
0.167574915893 0.9144 -0.0319905178467
0.163806635946 0.9144 -0.0320034111754
0.160038355998 0.9144 -0.0320163045042
0.156278656562 0.9144 -0.0320085489871
0.15250828392 0.9144 -0.0319915153943
0.148736516149 0.9144 -0.0319545305205
0.144974724019 0.9144 -0.031916848082
0.141201561118 0.9144 -0.0318599119272
0.137438373858 0.9144 -0.0318022782077
0.133674489033 0.9144 -0.0317346688476
0.129900628568 0.9144 -0.0316677570523
0.126135348614 0.9144 -0.0315801964112
0.122499751986 0.9144 -0.0314835674286
0.119033741247 0.9144 -0.0313750798454
0.11572803832 0.9144 -0.031265406867
0.112591921282 0.9144 -0.031143875288
0.109596160776 0.9144 -0.0310225534431
0.106750034878 0.9144 -0.0308907681272
0.10403428987 0.9144 -0.0307598901103
0.10144822819 0.9144 -0.0306199437517
0.0989825717596 0.9144 -0.0304816022568
0.0966472962209 0.9144 -0.0303441680608
0.0944124746519 0.9144 -0.0302097338579
0.0922873851285 0.9144 -0.030067626443
0.0902627495748 0.9144 -0.0299285190211
0.0883385679909 0.9144 -0.0297924115924
0.0864136888423 0.9144 -0.0296463285232
0.0844888096936 0.9144 -0.029500245454
0.0825632329802 0.9144 -0.0293441867442
0.0806369587021 0.9144 -0.029178152394
0.078710684424 0.9144 -0.0290121180438
0.0767837125811 0.9144 -0.0288361080531
0.0748667163788 0.9144 -0.0286594004976
0.0729390469712 0.9144 -0.0284734148664
0.0710206556394 0.9144 -0.0282767560299
0.0691015667428 0.9144 -0.0280701215529
0.0671725022057 0.9144 -0.0278641846407
0.0652527157444 0.9144 -0.0276475745232
0.0633322317184 0.9144 -0.0274209887652
0.0614210257681 0.9144 -0.027183729802
0.0594912636663 0.9144 -0.0269678172493
0.0578308438581 0.9144 -0.0267330704486
0.0566434598943 0.9144 -0.0279588841876
0.0544402338251 0.9144 -0.0295664895148
0.0515835030835 0.9144 -0.029856471359
0.0493498669099 0.9144 -0.0298823449689
0.0472477286606 0.9144 -0.0296383884547
0.0452703907846 0.9144 -0.0293155341153
0.0433201895713 0.9144 -0.0289506845198
0.0413792664337 0.9144 -0.028575161719
0.0394462262423 0.9144 -0.028169014432
0.0375124884863 0.9144 -0.0277528915045
0.0355773556008 0.9144 -0.0273168172959
0.0336301543805 0.9144 -0.0268515137306
0.0316908361066 0.9144 -0.0263555856791
0.0297600983436 0.9144 -0.0258390087818
0.027837243527 0.9144 -0.0252918073982
0.0259023203757 0.9144 -0.0247153766579
0.0239845582464 0.9144 -0.0240976482261
0.0220533326529 0.9144 -0.0234307391566
0.0201399656462 0.9144 -0.022732508036
0.0182323888916 0.9144 -0.0219737255077
0.0163412755943 0.9144 -0.0211636696474
0.0144452793438 0.9144 -0.0202837843036
0.0125850002669 0.9144 -0.0193412548578
0.0107390919532 0.9144 -0.0183175251586
0.00893748132403 0.9144 -0.0172105025116
0.00715951953375 0.9144 -0.0160116064059
0.00542515786334 0.9144 -0.0147194417119
0.00377360131009 0.9144 -0.0133212425304
0.00232434782583 0.9144 -0.011948994616
0.00106742177008 0.9144 -0.0106033955337
-1.01524908113e-05 0.9144 -0.00938559681787
-0.000933418925176 0.9144 -0.00836752064627
-0.00176941675759 0.9144 -0.00759395253407
-0.00263324881729 0.9144 -0.0068524040376
-0.0035703981842 0.9144 -0.00606586029177
-0.00456579653048 0.9144 -0.0051630966836
-0.00563779027346 0.9144 -0.0040251030918
-0.00667804249711 0.9144 -0.00262425502323
-0.00764086038733 0.9144 -0.000897210811213
-0.00836014587927 0.9144 0.00121776634731
-0.00874611820839 0.9144 0.00372695453499
-0.00847418609491 0.9144 0.0064325141676
-0.00747570545059 0.9144 0.00949963601111
-0.00528496253692 0.9144 0.0122892498708
-0.00175923003153 0.9144 0.014480530387
0.00346542506706 0.9144 0.0150263134032
0.00644087853844 0.9144 0.0127583458902
0.0065115423111 0.9144 0.0118911627312
0.00739400353211 0.9144 0.0121734076487
0.00921319929925 0.9144 0.012821887996
0.0110189316022 0.9144 0.013519548981
0.0128367322399 0.9144 0.0141879806093
0.0146566255717 0.9144 0.0148264853161
0.0164786115978 0.9144 0.0154350631014
0.0182878317244 0.9144 0.016082845884
0.0200849835164 0.9144 0.0167598580233
0.021894203643 0.9144 0.0174076408059
0.0237055164638 0.9144 0.0180254966669
0.0255388732599 0.9144 0.018614820736
0.0273743227502 0.9144 0.0191742178835
0.0292218405752 0.9144 0.0197043856742
0.0310707535296 0.9144 0.020214602184
0.0329203640488 0.9144 0.0207148430532
0.0347820429028 0.9144 0.0211858545657
0.0366550925267 0.9144 0.0216376123619
0.0385195616395 0.9144 0.0220687213123
0.0403947039576 0.9144 0.022490552187
0.0422712414052 0.9144 0.0228924317807
0.0441491739823 0.9144 0.0232743600934
0.0460370821998 0.9144 0.0236569859708
0.0479171074711 0.9144 0.0240089873619
0.0498071083829 0.9144 0.0243616863179
0.0516985044241 0.9144 0.0246944339928
0.0535905980301 0.9144 0.0250172060272
0.0554833892008 0.9144 0.0253300024211
0.0573868535768 0.9144 0.0256335207392
0.059281039877 0.9144 0.0259263658521
0.0611759237419 0.9144 0.0262092353245
0.0630814808121 0.9144 0.0264828267211
0.0649784573712 0.9144 0.026735769272
0.0668854095709 0.9144 0.0269894093876
0.0687930593353 0.9144 0.0272330738627
0.0706907334592 0.9144 0.0274760407731
0.072599778353 0.9144 0.0276997539672
0.0745088232469 0.9144 0.0279234671613
0.0764185657055 0.9144 0.0281372047149
0.0783290057288 0.9144 0.028340966628
0.0802301676764 0.9144 0.0285340553359
0.0821413052645 0.9144 0.0287278416085
0.0840531404173 0.9144 0.0289116522406
0.0859656731348 0.9144 0.0290854872322
0.0878789034171 0.9144 0.0292493465833
0.0897322798564 0.9144 0.029409020546
0.0916654614197 0.9144 0.0295742750266
0.093709770158 0.9144 0.0297272514382
0.0958431620961 0.9144 0.029896481573
0.0980976568496 0.9144 0.0300541312037
0.100451908008 0.9144 0.0302187564817
0.102936540058 0.9144 0.0303824744609
0.105542274924 0.9144 0.0305346119358
0.108277693115 0.9144 0.0306958177524
0.111144189763 0.9144 0.0308461406295
0.114161018584 0.9144 0.0309969513372
0.117328877141 0.9144 0.031138274235
0.120657043511 0.9144 0.031280782528
0.124146215258 0.9144 0.0314145005758
0.127817041229 0.9144 0.0315308478674
0.131608272451 0.9144 0.0316455902954
0.135390923161 0.9144 0.0317396838776
0.139174271436 0.9144 0.0318238018193
0.142968990482 0.9144 0.0318886660447
0.146755129016 0.9144 0.0319328814244
0.15054126755 0.9144 0.0319770968041
0.154328801214 0.9144 0.0320013609028
0.158117032442 0.9144 0.032015649361
0.16189668316 0.9144 0.0320092889735
0.165686309517 0.9144 0.0320036261506
0.169477331005 0.9144 0.0319780120468
0.173259074416 0.9144 0.0319417247378
0.177051491033 0.9144 0.0318961593529
0.180834629574 0.9144 0.0318399207629
0.18461846568 0.9144 0.0317737065323
0.188412974991 0.9144 0.031698214226
0.192198903791 0.9144 0.0316020730739
0.195984832591 0.9144 0.0315059319218
0.199770761391 0.9144 0.0314097907697
0.203558085321 0.9144 0.0312936983366
0.207336131175 0.9144 0.0311669326983
0.211124850234 0.9144 0.0310308889842
0.214903593652 0.9144 0.0308941477054
0.218693010276 0.9144 0.0307481283508
0.222473148824 0.9144 0.030591435791
0.226263960577 0.9144 0.0304254651554
0.23004479669 0.9144 0.030258796955
0.233827027932 0.9144 0.0300721774737
0.237609259174 0.9144 0.0298855579924
0.241391490416 0.9144 0.029698938511
0.245174419223 0.9144 0.0295023433892
0.248958045595 0.9144 0.0292957726268
0.25273239389 0.9144 0.0290785286593
0.256516717827 0.9144 0.0288619822564
0.260301739328 0.9144 0.0286354602131
0.264077482753 0.9144 0.0283982649645
0.267863201819 0.9144 0.0281617672806
0.271638945244 0.9144 0.027924572032
0.275415386235 0.9144 0.0276774011429
0.279192524789 0.9144 0.0274202546133
0.282969663344 0.9144 0.0271631080838
0.286747499464 0.9144 0.0268959859137
0.290526033148 0.9144 0.0266188881031
0.294303869268 0.9144 0.026351765933
0.298083100517 0.9144 0.0260646924819
0.301862331766 0.9144 0.0257776190308
0.305631587374 0.9144 0.0254898480149
0.309411516188 0.9144 0.0251927989233
0.313191445002 0.9144 0.0248957498317
0.31696209574 0.9144 0.0245880275349
0.320732746478 0.9144 0.024280305238
0.324513372856 0.9144 0.0239732805059
0.328284721159 0.9144 0.0236555825686
0.332056767026 0.9144 0.0233279089907
0.335828812894 0.9144 0.0230002354129
0.339600858761 0.9144 0.022672561835
0.343372904629 0.9144 0.0223448882572
0.347145648061 0.9144 0.0220072390388
0.350919089058 0.9144 0.0216596141799
0.354692530055 0.9144 0.0213119893211
0.358465971052 0.9144 0.0209643644622
0.362230133973 0.9144 0.0206060663981
0.366004272535 0.9144 0.0202484658988
0.369778411097 0.9144 0.0198908653994
0.373543271583 0.9144 0.0195225916948
0.377318107709 0.9144 0.019155015555
0.381082968195 0.9144 0.0187867418504
0.384848526246 0.9144 0.0184084925053
0.388624059937 0.9144 0.0180309407249
0.392390315552 0.9144 0.0176427157393
0.396155873603 0.9144 0.0172644663942
0.399922826783 0.9144 0.0168662657681
0.403689082398 0.9144 0.0164780407825
0.407456035578 0.9144 0.0160798401564
0.411222988759 0.9144 0.0156816395303
0.414990639503 0.9144 0.0152734632637
0.418748314608 0.9144 0.0148645894323
0.422515965353 0.9144 0.0144564131657
0.426284313662 0.9144 0.0140382612586
0.430042686331 0.9144 0.0136194117868
0.433811034641 0.9144 0.0132012598796
0.437570104875 0.9144 0.0127724347673
0.441339150749 0.9144 0.0123443072197
0.445098220983 0.9144 0.0119154821073
0.448857988782 0.9144 0.0114766813545
0.45261775658 0.9144 0.0110378806016
0.456387500019 0.9144 0.0105997774135
0.460147965383 0.9144 0.0101510010202
0.463908430746 0.9144 0.00970222462679
0.467659618034 0.9144 0.0092427750282
0.471420780962 0.9144 0.00878402299434
0.47518194389 0.9144 0.00832527096048
0.478943804383 0.9144 0.00785654328612
0.48269499167 0.9144 0.00739709368752
0.486457549728 0.9144 0.00691839037266
0.490210132145 0.9144 0.00643898949306
0.493972690202 0.9144 0.00596028617819
0.497725272619 0.9144 0.00548088529859
0.501478552601 0.9144 0.00499150877849
0.505241808223 0.9144 0.00450282982312
0.50899578577 0.9144 0.00400347766251
0.512749763316 0.9144 0.00350412550191
0.516504438428 0.9144 0.0029947977008
0.520249137898 0.9144 0.00248477233495
0.52400381301 0.9144 0.00197544453384
0.527749210045 0.9144 0.00145544352749
0.530097041749 0.9144 0.00113844780245
0.531555158488 0.9144 0.000929652269065
0.532476195504 0.9144 0.000803593490622
0.533043202149 0.9144 0.000722949429888
0.533397930084 0.9144 0.000667559071678
0.533395627656 0.9144 0.000557129461412
0.533403300868 0.9144 0.000447397415883
0.53340099844 0.9144 0.000336967805617
0.533398696011 0.9144 0.000226538195351
0.533396393583 0.9144 0.000116108585085
0.53340476436 0.9144 -3.59910094617e-06

ZONE T="SLICE_Y_0p9144_BINS07_KS_0p5334mm_SINGLE_LAYER"
0.53340476436 0.9144 -3.59910094617e-06
0.533402461931 0.9144 -0.000114028711212
0.533400159503 0.9144 -0.000224458321478
0.533397857075 0.9144 -0.000334887931744
0.533395554646 0.9144 -0.00044531754201
0.533403227858 0.9144 -0.000555049587539
0.533401622995 0.9144 -0.000675454838307
0.533043895066 0.9144 -0.000720518449861
0.532468098176 0.9144 -0.000800879766643
0.531555222203 0.9144 -0.000934885206005
0.530095778696 0.9144 -0.00113718362744
0.527752688574 0.9144 -0.00146141915351
0.524009311223 0.9144 -0.00197379207209