#+++++++++++++++++++++++++++++++++++++++++++++++++++++++++++++++++++++++++++++++++++++++++++++++++++++++++++++++++++++++++++++++++
#
#   IPW-3 Cut/Slice DATA SUBMITTAL FORM for Test Case NACA0012_AE3933, May 18th 2026
#
#       NOMENCLATURE:
#                  X [m]:  X-coordinate of the surface (clean for reference)
#                  Y [m]:  Y-coordinate of the surface (clean for reference)
#                  Z [m]:  Z-coordinate of the surface (clean for reference)
#                 Cp [-]:  Pressure coefficient
#            HTC [W/m2K]:  Convective Heat Transfer Coefficient (on the rough surface)
#               Beta [-]:  Collection efficiency
#                 Ts [K]:  Surface temperature
#                 FF [-]:  Freezing fraction
#                  k [m]:  Surface roughness height if variable (OPTIONAL)
#         RhoIce [kg/m3]:  Ice density (OPTIONAL)
#      HTC_CLEAN [W/m2K]:  Convective Heat Transfer Coefficient on the surface without roughness (OPTIONAL)
#
#                XXmm:  Roughness height used for the case, in mm.
#                       In the zone name, use the format KS_XXmm.
#                       For example, if k_s = 1.5 mm, use KS_1p5mm. 
#                       For Variable roughness, use KS_VAR
#
#    FLOW CONDITIONS:
#                                   AOA: 4.0 deg
#                           Mach Number: 0.3127 [-]
#       Mean aerodynamic chord (M.A.C.): 0.5334 [m]
#                       Reynolds Number: 3.8947 million (based on MAC)
#                       Freestream Temp: 270.95 [K]
#                        Reference area: 0.97548 [m2]
#               Moment Reference Center: 0.13335, 0, 0 [m] (X, Y, Z)
#
#    ICING CONDITIONS:
#                           Icing Time: 420 [s]
#                                  LWC: 0.55 [g/m3]
#                                  MVD: 20 [μm]
#
#              NOTES: 1. Please use at least 5 decimal places in the numerical values
#                     2. If data are NOT provided, please fill data fields with a numerical value of "-999" 
#
#++++++++++++++++++++++++++++++++++++++++++++++++++++++++++++++++++++++++++++++++++++++++++++++++++++++++++++++++++++

                                                    <- Optional ->                 
VARIABLES = "X" "Y" "Z" "Cp" "HTC" "Beta" "Ts" "FF" "k" "RhoIce" "HTC_CLEAN"

ZONE T="SLICE_Y_0p9144_BINS01_KS_0p5mm_CUTDATA"
0.53243 0.91440 -0.02791 0.01436 90.62895 0.00000 275.51920 0.00000 -999.00000 680.00000 -999.00000 
0.53241 0.91440 -0.02813 -0.00798 81.60127 0.00000 275.48951 0.00000 -999.00000 680.00000 -999.00000 
0.53239 0.91440 -0.02835 -0.12537 124.15338 0.00000 274.31033 0.00000 -999.00000 680.00000 -999.00000 
0.53238 0.91440 -0.02858 -0.22750 171.68058 0.00000 273.15000 0.00000 -999.00000 680.00000 -999.00000 
0.53166 0.91440 -0.02863 0.17081 321.85203 0.00000 274.10894 0.00000 -999.00000 680.00000 -999.00000 
0.53051 0.91440 -0.02871 0.09293 295.62836 0.00000 273.91907 0.00000 -999.00000 680.00000 -999.00000 
0.52867 0.91440 -0.02883 0.09781 276.47386 0.00000 273.92960 0.00000 -999.00000 680.00000 -999.00000 
0.52572 0.91440 -0.02903 0.09175 274.60177 0.00000 273.91489 0.00000 -999.00000 680.00000 -999.00000 
0.52100 0.91440 -0.02935 0.08355 277.70061 0.00000 273.89538 0.00000 -999.00000 680.00000 -999.00000 
0.51345 0.91440 -0.02984 0.07289 283.40507 0.00000 273.87014 0.00000 -999.00000 680.00000 -999.00000 
0.50524 0.91440 -0.03035 0.06302 289.65419 0.00000 273.84684 0.00000 -999.00000 680.00000 -999.00000 
0.49702 0.91440 -0.03085 0.05305 295.54184 0.00000 273.82326 0.00000 -999.00000 680.00000 -999.00000 
0.48880 0.91440 -0.03133 0.04355 300.93033 0.00000 273.80076 0.00000 -999.00000 680.00000 -999.00000 
0.48058 0.91440 -0.03179 0.03470 305.90723 0.00000 273.77981 0.00000 -999.00000 680.00000 -999.00000 
0.47236 0.91440 -0.03223 0.02651 310.55272 0.00000 273.76043 0.00000 -999.00000 680.00000 -999.00000 
0.46413 0.91440 -0.03265 0.01892 314.91124 0.00000 273.74246 0.00000 -999.00000 680.00000 -999.00000 
0.45591 0.91440 -0.03305 0.01182 319.02328 0.00000 273.72564 0.00000 -999.00000 680.00000 -999.00000 
0.44769 0.91440 -0.03344 0.00517 322.92648 0.00000 273.70989 0.00000 -999.00000 680.00000 -999.00000 
0.43946 0.91440 -0.03381 -0.00109 326.65577 0.00000 273.69509 0.00000 -999.00000 680.00000 -999.00000 
0.43124 0.91440 -0.03417 -0.00701 330.24945 0.00000 273.68108 0.00000 -999.00000 680.00000 -999.00000 
0.42301 0.91440 -0.03450 -0.01264 333.74064 0.00000 273.66776 0.00000 -999.00000 680.00000 -999.00000 
0.41478 0.91440 -0.03482 -0.01798 337.14159 0.00000 273.65513 0.00000 -999.00000 680.00000 -999.00000 
0.40656 0.91440 -0.03513 -0.02309 340.46487 0.00000 273.64306 0.00000 -999.00000 680.00000 -999.00000 
0.39833 0.91440 -0.03542 -0.02800 343.72762 0.00000 273.63144 0.00000 -999.00000 680.00000 -999.00000 
0.39010 0.91440 -0.03569 -0.03274 346.94373 0.00000 273.62024 0.00000 -999.00000 680.00000 -999.00000 
0.38187 0.91440 -0.03594 -0.03731 350.12226 0.00000 273.60944 0.00000 -999.00000 680.00000 -999.00000 
0.37364 0.91440 -0.03618 -0.04174 353.27586 0.00000 273.59899 0.00000 -999.00000 680.00000 -999.00000 
0.36541 0.91440 -0.03640 -0.04605 356.42429 0.00000 273.58880 0.00000 -999.00000 680.00000 -999.00000 
0.35718 0.91440 -0.03660 -0.05026 359.57547 0.00000 273.57888 0.00000 -999.00000 680.00000 -999.00000 
0.34895 0.91440 -0.03678 -0.05435 362.73634 0.00000 273.56922 0.00000 -999.00000 680.00000 -999.00000 
0.34072 0.91440 -0.03695 -0.05835 365.91141 0.00000 273.55977 0.00000 -999.00000 680.00000 -999.00000 
0.33249 0.91440 -0.03709 -0.06226 369.11011 0.00000 273.55055 0.00000 -999.00000 680.00000 -999.00000 
0.32425 0.91440 -0.03722 -0.06608 372.33504 0.00000 273.54155 0.00000 -999.00000 680.00000 -999.00000 
0.31602 0.91440 -0.03733 -0.06982 375.58241 0.00000 273.53275 0.00000 -999.00000 680.00000 -999.00000 
0.30779 0.91440 -0.03741 -0.07346 378.85956 0.00000 273.52417 0.00000 -999.00000 680.00000 -999.00000 
0.29956 0.91440 -0.03747 -0.07704 382.19727 0.00000 273.51579 0.00000 -999.00000 680.00000 -999.00000 
0.29132 0.91440 -0.03751 -0.08053 385.58415 0.00000 273.50761 0.00000 -999.00000 680.00000 -999.00000 
0.28309 0.91440 -0.03753 -0.08390 389.04700 0.00000 273.49971 0.00000 -999.00000 680.00000 -999.00000 
0.27486 0.91440 -0.03752 -0.08712 392.62187 0.00000 273.49218 0.00000 -999.00000 680.00000 -999.00000 
0.26662 0.91440 -0.03749 -0.09017 396.30386 0.00000 273.48505 0.00000 -999.00000 680.00000 -999.00000 
0.25839 0.91440 -0.03742 -0.09302 400.11125 0.00000 273.47839 0.00000 -999.00000 680.00000 -999.00000 
0.25016 0.91440 -0.03733 -0.09566 404.01531 0.00000 273.47198 0.00000 -999.00000 680.00000 -999.00000 
0.24193 0.91440 -0.03721 -0.09809 407.99238 0.00000 273.46605 0.00000 -999.00000 680.00000 -999.00000 
0.23369 0.91440 -0.03706 -0.10025 412.06612 0.00000 273.46104 0.00000 -999.00000 680.00000 -999.00000 
0.22546 0.91440 -0.03687 -0.10211 416.26797 0.00000 273.45676 0.00000 -999.00000 680.00000 -999.00000 
0.21723 0.91440 -0.03665 -0.10368 420.59802 0.00000 273.45314 0.00000 -999.00000 680.00000 -999.00000 
0.20900 0.91440 -0.03639 -0.10493 425.02203 0.00000 273.45030 0.00000 -999.00000 680.00000 -999.00000 
0.20078 0.91440 -0.03609 -0.10579 429.48787 0.00000 273.44838 0.00000 -999.00000 680.00000 -999.00000 
0.19255 0.91440 -0.03576 -0.10612 433.93768 0.00000 273.44771 0.00000 -999.00000 680.00000 -999.00000 
0.18433 0.91440 -0.03537 -0.10598 438.30238 0.00000 273.44815 0.00000 -999.00000 680.00000 -999.00000 
0.17610 0.91440 -0.03494 -0.10525 442.50980 0.00000 273.44996 0.00000 -999.00000 680.00000 -999.00000 
0.16820 0.91440 -0.03448 -0.10387 446.52100 0.00000 273.45349 0.00000 -999.00000 680.00000 -999.00000 
0.16067 0.91440 -0.03400 -0.10209 450.36308 0.00000 273.45796 0.00000 -999.00000 680.00000 -999.00000 
0.15350 0.91440 -0.03349 -0.09989 454.05667 0.00000 273.46316 0.00000 -999.00000 680.00000 -999.00000 
0.14668 0.91440 -0.03297 -0.09728 457.58928 0.00000 273.46945 0.00000 -999.00000 680.00000 -999.00000 
0.14019 0.91440 -0.03243 -0.09423 460.98147 0.00000 273.47677 0.00000 -999.00000 680.00000 -999.00000 
0.13400 0.91440 -0.03188 -0.09076 464.20521 0.00000 273.48513 0.00000 -999.00000 680.00000 -999.00000 
0.12812 0.91440 -0.03132 -0.08688 467.18223 0.00000 273.49444 0.00000 -999.00000 680.00000 -999.00000 
0.12252 0.91440 -0.03075 -0.08256 469.92445 0.00000 273.50479 0.00000 -999.00000 680.00000 -999.00000 
0.11719 0.91440 -0.03017 -0.07788 472.49006 0.00000 273.51603 0.00000 -999.00000 680.00000 -999.00000 
0.11212 0.91440 -0.02959 -0.07286 474.92381 0.00000 273.52805 0.00000 -999.00000 680.00000 -999.00000 
0.10729 0.91440 -0.02901 -0.06744 477.33638 0.00000 273.54106 0.00000 -999.00000 680.00000 -999.00000 
0.10270 0.91440 -0.02842 -0.06166 479.80366 0.00000 273.55491 0.00000 -999.00000 680.00000 -999.00000 
0.09832 0.91440 -0.02783 -0.05562 482.32006 0.00000 273.56940 0.00000 -999.00000 680.00000 -999.00000 
0.09416 0.91440 -0.02725 -0.04911 484.75364 0.00000 273.58501 0.00000 -999.00000 680.00000 -999.00000 
0.09021 0.91440 -0.02667 -0.04373 487.02967 0.00000 273.59792 0.00000 -999.00000 680.00000 -999.00000 
0.08644 0.91440 -0.02609 -0.03566 491.50232 0.00000 273.61731 0.00000 -999.00000 680.00000 -999.00000 
0.08262 0.91440 -0.02547 -0.02660 497.28022 0.00000 273.63911 0.00000 -999.00000 680.00000 -999.00000 
0.07881 0.91440 -0.02483 -0.01918 502.18074 0.00000 273.65698 0.00000 -999.00000 680.00000 -999.00000 
0.07500 0.91440 -0.02417 -0.00980 507.29448 0.00000 273.67957 0.00000 -999.00000 680.00000 -999.00000 
0.07120 0.91440 -0.02347 0.00063 512.68343 0.00000 273.70467 0.00000 -999.00000 680.00000 -999.00000 
0.06740 0.91440 -0.02274 0.01233 518.22581 0.00000 273.73287 0.00000 -999.00000 680.00000 -999.00000 
0.06361 0.91440 -0.02197 0.02545 523.71051 0.00251 273.76268 0.00000 -999.00000 680.00000 -999.00000 
0.05982 0.91440 -0.02117 0.03999 529.03379 0.01046 273.79209 0.00000 -999.00000 680.00000 -999.00000 
0.05605 0.91440 -0.02033 0.05622 534.32719 0.02207 273.82298 0.00000 -999.00000 680.00000 -999.00000 
0.05228 0.91440 -0.01945 0.07415 539.92648 0.03507 273.85704 0.00000 -999.00000 680.00000 -999.00000 
0.04853 0.91440 -0.01853 0.09393 546.22861 0.04938 273.89467 0.00000 -999.00000 680.00000 -999.00000 
0.04478 0.91440 -0.01755 0.11654 553.12943 0.06523 273.93805 0.00000 -999.00000 680.00000 -999.00000 
0.04106 0.91440 -0.01653 0.14248 559.93921 0.08283 273.98810 0.00000 -999.00000 680.00000 -999.00000 
0.03734 0.91440 -0.01544 0.17209 566.22347 0.10241 274.04532 0.00000 -999.00000 680.00000 -999.00000 
0.03365 0.91440 -0.01429 0.20557 572.18206 0.12431 274.10990 0.00000 -999.00000 680.00000 -999.00000 
0.02998 0.91440 -0.01306 0.24440 577.64145 0.14901 274.18480 0.00000 -999.00000 680.00000 -999.00000 
0.02634 0.91440 -0.01175 0.28990 581.43452 0.17714 274.27214 0.00000 -999.00000 680.00000 -999.00000 
0.02274 0.91440 -0.01034 0.34335 583.01230 0.20951 274.37374 0.00000 -999.00000 680.00000 -999.00000 
0.01919 0.91440 -0.00882 0.40727 582.25392 0.24721 274.49408 0.00000 -999.00000 680.00000 -999.00000 
0.01569 0.91440 -0.00716 0.48483 577.35422 0.29197 274.63695 0.00000 -999.00000 680.00000 -999.00000 
0.01229 0.91440 -0.00533 0.58393 568.73241 0.34656 274.81589 0.00000 -999.00000 680.00000 -999.00000 
0.00901 0.91440 -0.00328 0.71314 557.20682 0.41470 275.04435 0.00000 -999.00000 680.00000 -999.00000 
0.00592 0.91440 -0.00095 0.85329 543.92200 0.49464 275.17194 0.00000 -999.00000 680.00000 -999.00000 
0.00360 0.91440 0.00130 0.97323 529.09876 0.57773 275.12346 0.00000 -999.00000 680.00000 -999.00000 
0.00199 0.91440 0.00341 1.03313 543.50573 0.65328 275.09394 0.00000 -999.00000 680.00000 -999.00000 
0.00095 0.91440 0.00542 0.96956 666.25049 0.70842 275.16055 0.00000 -999.00000 680.00000 -999.00000 
0.00041 0.91440 0.00737 0.75736 838.94669 0.72297 275.00949 0.00000 -999.00000 680.00000 -999.00000 
0.00032 0.91440 0.00930 0.61597 911.60063 0.71678 274.81117 0.00000 -999.00000 680.00000 -999.00000 
0.00068 0.91440 0.01119 -0.06177 1017.76176 0.59739 273.50476 0.00407 -999.00000 680.00000 -999.00000 
0.00147 0.91440 0.01304 -0.53444 1089.36925 0.47397 273.15000 0.02540 -999.00000 680.00000 -999.00000 
0.00277 0.91440 0.01488 -0.92826 1099.92056 0.33229 273.15000 0.05489 -999.00000 680.00000 -999.00000 
0.00464 0.91440 0.01674 -1.17043 1008.16508 0.18896 273.15000 0.07815 -999.00000 680.00000 -999.00000 
0.00723 0.91440 0.01863 -1.30279 920.76909 0.05919 273.15000 0.10462 -999.00000 680.00000 -999.00000 
0.01059 0.91440 0.02051 -1.34869 871.30922 0.00000 273.15000 0.12707 -999.00000 680.00000 -999.00000 
0.01410 0.91440 0.02208 -1.33888 832.70297 0.00000 273.15000 0.14155 -999.00000 680.00000 -999.00000 
0.01771 0.91440 0.02342 -1.30641 802.08747 0.00000 273.15000 0.15901 -999.00000 680.00000 -999.00000 
0.02138 0.91440 0.02458 -1.26914 776.22661 0.00000 273.15000 0.18320 -999.00000 680.00000 -999.00000 
0.02509 0.91440 0.02559 -1.23209 754.66616 0.00000 273.15000 0.21996 -999.00000 680.00000 -999.00000 
0.02883 0.91440 0.02649 -1.19751 735.58018 0.00000 273.15000 0.28160 -999.00000 680.00000 -999.00000 
0.03260 0.91440 0.02728 -1.16419 717.68999 0.00000 273.15000 0.40482 -999.00000 680.00000 -999.00000 
0.03638 0.91440 0.02798 -1.13305 700.40729 0.00000 272.87742 0.74447 -999.00000 680.00000 -999.00000 
0.04018 0.91440 0.02861 -1.10432 683.44929 0.00000 273.80400 0.50000 -999.00000 680.00000 -999.00000 
0.04399 0.91440 0.02917 -1.07728 666.98909 0.00000 275.01103 0.00000 -999.00000 680.00000 -999.00000 
0.04780 0.91440 0.02967 -1.05152 651.32367 0.00000 275.02621 0.00000 -999.00000 680.00000 -999.00000 
0.05163 0.91440 0.03012 -1.02719 636.57608 0.00000 275.04052 0.00000 -999.00000 680.00000 -999.00000 
0.05545 0.91440 0.03052 -1.00414 622.75719 0.00000 275.05404 0.00000 -999.00000 680.00000 -999.00000 
0.05929 0.91440 0.03087 -0.98245 609.84600 0.00000 275.06672 0.00000 -999.00000 680.00000 -999.00000 
0.06312 0.91440 0.03117 -0.96179 597.80640 0.00000 275.07877 0.00000 -999.00000 680.00000 -999.00000 
0.06696 0.91440 0.03144 -0.94209 586.62667 0.00000 275.09025 0.00000 -999.00000 680.00000 -999.00000 
0.07080 0.91440 0.03167 -0.92327 576.22303 0.00000 275.10121 0.00000 -999.00000 680.00000 -999.00000 
0.07465 0.91440 0.03187 -0.90508 566.49858 0.00000 275.11177 0.00000 -999.00000 680.00000 -999.00000 
0.07849 0.91440 0.03203 -0.88756 557.35905 0.00000 275.12193 0.00000 -999.00000 680.00000 -999.00000 
0.08234 0.91440 0.03217 -0.87075 548.85147 0.00000 275.13168 0.00000 -999.00000 680.00000 -999.00000 
0.08618 0.91440 0.03228 -0.85220 541.26214 0.00000 275.14247 0.00000 -999.00000 680.00000 -999.00000 
0.09003 0.91440 0.03235 -0.83854 532.74975 0.00000 275.15029 0.00000 -999.00000 680.00000 -999.00000 
0.09374 0.91440 0.03241 -0.82521 525.42906 0.00000 275.15793 0.00000 -999.00000 680.00000 -999.00000 
0.09763 0.91440 0.03244 -0.80797 520.88959 0.00000 275.16804 0.00000 -999.00000 680.00000 -999.00000 
0.10172 0.91440 0.03244 -0.79284 516.39055 0.00000 275.17687 0.00000 -999.00000 680.00000 -999.00000 
0.10601 0.91440 0.03242 -0.77711 511.91561 0.00000 275.18605 0.00000 -999.00000 680.00000 -999.00000 
0.11052 0.91440 0.03237 -0.76139 507.57255 0.00000 275.19522 0.00000 -999.00000 680.00000 -999.00000 
0.11525 0.91440 0.03228 -0.74549 503.30964 0.00000 275.20449 0.00000 -999.00000 680.00000 -999.00000 
0.12022 0.91440 0.03217 -0.72931 499.11127 0.00000 275.21392 0.00000 -999.00000 680.00000 -999.00000 
0.12544 0.91440 0.03201 -0.71297 494.85853 0.00000 275.22342 0.00000 -999.00000 680.00000 -999.00000 
0.13091 0.91440 0.03181 -0.69630 490.46581 0.00000 275.23310 0.00000 -999.00000 680.00000 -999.00000 
0.13666 0.91440 0.03156 -0.67928 485.90059 0.00000 275.24296 0.00000 -999.00000 680.00000 -999.00000 
0.14269 0.91440 0.03127 -0.66204 481.08203 0.00000 275.25293 0.00000 -999.00000 680.00000 -999.00000 
0.14903 0.91440 0.03092 -0.64463 475.95585 0.00000 275.26297 0.00000 -999.00000 680.00000 -999.00000 
0.15567 0.91440 0.03051 -0.62696 470.49421 0.00000 275.27311 0.00000 -999.00000 680.00000 -999.00000 
0.16265 0.91440 0.03004 -0.60899 464.69062 0.00000 275.28340 0.00000 -999.00000 680.00000 -999.00000 
0.16997 0.91440 0.02950 -0.59080 458.57593 0.00000 275.29377 0.00000 -999.00000 680.00000 -999.00000 
0.17766 0.91440 0.02889 -0.57239 452.22744 0.00000 275.30424 0.00000 -999.00000 680.00000 -999.00000 
0.18572 0.91440 0.02820 -0.55364 445.75645 0.00000 275.31488 0.00000 -999.00000 680.00000 -999.00000 
0.19400 0.91440 0.02745 -0.53474 439.28879 0.00000 275.32557 0.00000 -999.00000 680.00000 -999.00000 
0.20227 0.91440 0.02665 -0.51626 432.87823 0.00000 275.33601 0.00000 -999.00000 680.00000 -999.00000 
0.21054 0.91440 0.02580 -0.49820 426.53845 0.00000 275.34617 0.00000 -999.00000 680.00000 -999.00000 
0.21880 0.91440 0.02492 -0.48037 420.34792 0.00000 275.35618 0.00000 -999.00000 680.00000 -999.00000 
0.22706 0.91440 0.02400 -0.46291 414.34566 0.00000 275.36596 0.00000 -999.00000 680.00000 -999.00000 
0.23531 0.91440 0.02304 -0.44587 408.49602 0.00000 275.37549 0.00000 -999.00000 680.00000 -999.00000 
0.24356 0.91440 0.02204 -0.42919 402.75237 0.00000 275.38478 0.00000 -999.00000 680.00000 -999.00000 
0.25180 0.91440 0.02102 -0.41282 397.09637 0.00000 275.39388 0.00000 -999.00000 680.00000 -999.00000 
0.26005 0.91440 0.01996 -0.39666 391.54095 0.00000 275.40285 0.00000 -999.00000 680.00000 -999.00000 
0.26828 0.91440 0.01888 -0.38071 386.13649 0.00000 275.41167 0.00000 -999.00000 680.00000 -999.00000 
0.27652 0.91440 0.01776 -0.36501 380.93672 0.00000 275.42035 0.00000 -999.00000 680.00000 -999.00000 
0.28475 0.91440 0.01662 -0.34964 375.91585 0.00000 275.42883 0.00000 -999.00000 680.00000 -999.00000 
0.29297 0.91440 0.01545 -0.33456 370.99368 0.00000 275.43714 0.00000 -999.00000 680.00000 -999.00000 
0.30120 0.91440 0.01426 -0.31968 366.13772 0.00000 275.44530 0.00000 -999.00000 680.00000 -999.00000 
0.30942 0.91440 0.01305 -0.30499 361.34778 0.00000 275.45334 0.00000 -999.00000 680.00000 -999.00000 
0.31763 0.91440 0.01181 -0.29046 356.60378 0.00000 275.46128 0.00000 -999.00000 680.00000 -999.00000 
0.32585 0.91440 0.01056 -0.27604 351.87480 0.00000 275.46913 0.00000 -999.00000 680.00000 -999.00000 
0.33406 0.91440 0.00928 -0.26173 347.14483 0.00000 275.47689 0.00000 -999.00000 680.00000 -999.00000 
0.34227 0.91440 0.00798 -0.24753 342.41473 0.00000 275.48457 0.00000 -999.00000 680.00000 -999.00000 
0.35047 0.91440 0.00666 -0.23344 337.69341 0.00000 275.49216 0.00000 -999.00000 680.00000 -999.00000 
0.35867 0.91440 0.00533 -0.21945 332.97355 0.00000 275.49967 0.00000 -999.00000 680.00000 -999.00000 
0.36687 0.91440 0.00397 -0.20555 328.23215 0.00000 275.50710 0.00000 -999.00000 680.00000 -999.00000 
0.37506 0.91440 0.00260 -0.19174 323.43925 0.00000 275.51444 0.00000 -999.00000 680.00000 -999.00000 
0.38326 0.91440 0.00121 -0.17794 318.55391 0.00000 275.52174 0.00000 -999.00000 680.00000 -999.00000 
0.39144 0.91440 -0.00020 -0.16412 313.54726 0.00000 275.52900 0.00000 -999.00000 680.00000 -999.00000 
0.39963 0.91440 -0.00162 -0.15027 308.40921 0.00000 275.53623 0.00000 -999.00000 680.00000 -999.00000 
0.40781 0.91440 -0.00306 -0.13634 303.13578 0.00000 275.54345 0.00000 -999.00000 680.00000 -999.00000 
0.41599 0.91440 -0.00452 -0.12230 297.72674 0.00000 275.55068 0.00000 -999.00000 680.00000 -999.00000 
0.42417 0.91440 -0.00600 -0.10814 292.14645 0.00000 275.55790 0.00000 -999.00000 680.00000 -999.00000 
0.43235 0.91440 -0.00749 -0.09382 286.34008 0.00000 275.56513 0.00000 -999.00000 680.00000 -999.00000 
0.44052 0.91440 -0.00900 -0.07932 280.27875 0.00000 275.57237 0.00000 -999.00000 680.00000 -999.00000 
0.44868 0.91440 -0.01052 -0.06462 273.94460 0.00000 275.57962 0.00000 -999.00000 680.00000 -999.00000 
0.45685 0.91440 -0.01206 -0.04969 267.34099 0.00000 275.58687 0.00000 -999.00000 680.00000 -999.00000 
0.46501 0.91440 -0.01362 -0.03454 260.45617 0.00000 275.59411 0.00000 -999.00000 680.00000 -999.00000 
0.47317 0.91440 -0.01520 -0.01913 253.24292 0.00000 275.60134 0.00000 -999.00000 680.00000 -999.00000 
0.48132 0.91440 -0.01679 -0.00347 245.65343 0.00000 275.60852 0.00000 -999.00000 680.00000 -999.00000 
0.48947 0.91440 -0.01840 0.01243 237.64702 0.00000 275.61559 0.00000 -999.00000 680.00000 -999.00000 
0.49762 0.91440 -0.02003 0.02846 229.21132 0.00000 275.62247 0.00000 -999.00000 680.00000 -999.00000 
0.50577 0.91440 -0.02168 0.04418 220.42766 0.00000 275.62888 0.00000 -999.00000 680.00000 -999.00000 
0.51391 0.91440 -0.02335 0.05888 211.82857 0.00000 275.63456 0.00000 -999.00000 680.00000 -999.00000 
0.52131 0.91440 -0.02489 0.07413 204.95402 0.00000 275.64092 0.00000 -999.00000 680.00000 -999.00000 
0.52594 0.91440 -0.02586 0.08577 201.95621 0.00000 275.64648 0.00000 -999.00000 680.00000 -999.00000 
0.52883 0.91440 -0.02646 0.09259 205.69775 0.00000 275.65164 0.00000 -999.00000 680.00000 -999.00000 
0.53064 0.91440 -0.02685 0.09007 224.24026 0.00000 275.65585 0.00000 -999.00000 680.00000 -999.00000 
0.53177 0.91440 -0.02709 0.14315 233.81912 0.00000 275.68884 0.00000 -999.00000 680.00000 -999.00000 
0.53247 0.91440 -0.02724 -0.15688 176.74749 0.00000 275.49808 0.00000 -999.00000 680.00000 -999.00000 
0.53246 0.91440 -0.02746 -0.07751 138.03738 0.00000 275.51204 0.00000 -999.00000 680.00000 -999.00000 
0.53244 0.91440 -0.02768 0.01164 97.00440 0.00000 275.52802 0.00000 -999.00000 680.00000 -999.00000 
0.53243 0.91440 -0.02791 0.01436 90.62895 0.00000 275.51920 0.00000 -999.00000 680.00000 -999.00000 

ZONE T="SLICE_Y_0p9144_BINS03_KS_0p5mm_CUTDATA"
0.53243 0.91440 -0.02791 0.01436 90.62895 0.00000 275.51920 0.00000 -999.00000 680.00000 -999.00000 
0.53241 0.91440 -0.02813 -0.00798 81.60127 0.00000 275.48951 0.00000 -999.00000 680.00000 -999.00000 
0.53239 0.91440 -0.02835 -0.12537 124.15338 0.00000 274.31033 0.00000 -999.00000 680.00000 -999.00000 
0.53238 0.91440 -0.02858 -0.22750 171.68058 0.00000 273.15000 0.00000 -999.00000 680.00000 -999.00000 
0.53166 0.91440 -0.02863 0.17081 321.85203 0.00000 274.10894 0.00000 -999.00000 680.00000 -999.00000 
0.53051 0.91440 -0.02871 0.09293 295.62836 0.00000 273.91907 0.00000 -999.00000 680.00000 -999.00000 
0.52867 0.91440 -0.02883 0.09781 276.47386 0.00000 273.92955 0.00000 -999.00000 680.00000 -999.00000 
0.52572 0.91440 -0.02903 0.09175 274.60177 0.00000 273.91484 0.00000 -999.00000 680.00000 -999.00000 
0.52100 0.91440 -0.02935 0.08355 277.70061 0.00000 273.89538 0.00000 -999.00000 680.00000 -999.00000 
0.51345 0.91440 -0.02984 0.07289 283.40507 0.00000 273.87014 0.00000 -999.00000 680.00000 -999.00000 
0.50524 0.91440 -0.03035 0.06302 289.65419 0.00000 273.84684 0.00000 -999.00000 680.00000 -999.00000 
0.49702 0.91440 -0.03085 0.05305 295.54184 0.00000 273.82325 0.00000 -999.00000 680.00000 -999.00000 
0.48880 0.91440 -0.03133 0.04355 300.93033 0.00000 273.80076 0.00000 -999.00000 680.00000 -999.00000 
0.48058 0.91440 -0.03179 0.03470 305.90723 0.00000 273.77980 0.00000 -999.00000 680.00000 -999.00000 
0.47236 0.91440 -0.03223 0.02651 310.55272 0.00000 273.76043 0.00000 -999.00000 680.00000 -999.00000 
0.46413 0.91440 -0.03265 0.01892 314.91124 0.00000 273.74245 0.00000 -999.00000 680.00000 -999.00000 
0.45591 0.91440 -0.03305 0.01182 319.02328 0.00000 273.72563 0.00000 -999.00000 680.00000 -999.00000 
0.44769 0.91440 -0.03344 0.00517 322.92648 0.00000 273.70989 0.00000 -999.00000 680.00000 -999.00000 
0.43946 0.91440 -0.03381 -0.00109 326.65577 0.00000 273.69509 0.00000 -999.00000 680.00000 -999.00000 
0.43124 0.91440 -0.03417 -0.00701 330.24945 0.00000 273.68107 0.00000 -999.00000 680.00000 -999.00000 
0.42301 0.91440 -0.03450 -0.01264 333.74064 0.00000 273.66776 0.00000 -999.00000 680.00000 -999.00000 
0.41478 0.91440 -0.03482 -0.01798 337.14159 0.00000 273.65513 0.00000 -999.00000 680.00000 -999.00000 
0.40656 0.91440 -0.03513 -0.02309 340.46487 0.00000 273.64306 0.00000 -999.00000 680.00000 -999.00000 
0.39833 0.91440 -0.03542 -0.02800 343.72762 0.00000 273.63144 0.00000 -999.00000 680.00000 -999.00000 
0.39010 0.91440 -0.03569 -0.03274 346.94373 0.00000 273.62024 0.00000 -999.00000 680.00000 -999.00000 
0.38187 0.91440 -0.03594 -0.03731 350.12226 0.00000 273.60943 0.00000 -999.00000 680.00000 -999.00000 
0.37364 0.91440 -0.03618 -0.04174 353.27586 0.00000 273.59899 0.00000 -999.00000 680.00000 -999.00000 
0.36541 0.91440 -0.03640 -0.04605 356.42429 0.00000 273.58879 0.00000 -999.00000 680.00000 -999.00000 
0.35718 0.91440 -0.03660 -0.05026 359.57547 0.00000 273.57887 0.00000 -999.00000 680.00000 -999.00000 
0.34895 0.91440 -0.03678 -0.05435 362.73634 0.00000 273.56922 0.00000 -999.00000 680.00000 -999.00000 
0.34072 0.91440 -0.03695 -0.05835 365.91141 0.00000 273.55977 0.00000 -999.00000 680.00000 -999.00000 
0.33249 0.91440 -0.03709 -0.06226 369.11011 0.00000 273.55055 0.00000 -999.00000 680.00000 -999.00000 
0.32425 0.91440 -0.03722 -0.06608 372.33504 0.00000 273.54155 0.00000 -999.00000 680.00000 -999.00000 
0.31602 0.91440 -0.03733 -0.06982 375.58241 0.00000 273.53275 0.00000 -999.00000 680.00000 -999.00000 
0.30779 0.91440 -0.03741 -0.07346 378.85956 0.00000 273.52415 0.00000 -999.00000 680.00000 -999.00000 
0.29956 0.91440 -0.03747 -0.07704 382.19727 0.00000 273.51574 0.00000 -999.00000 680.00000 -999.00000 
0.29132 0.91440 -0.03751 -0.08053 385.58415 0.00000 273.50752 0.00000 -999.00000 680.00000 -999.00000 
0.28309 0.91440 -0.03753 -0.08390 389.04700 0.00000 273.49958 0.00000 -999.00000 680.00000 -999.00000 
0.27486 0.91440 -0.03752 -0.08712 392.62187 0.00000 273.49201 0.00000 -999.00000 680.00000 -999.00000 
0.26662 0.91440 -0.03749 -0.09017 396.30386 0.00000 273.48485 0.00000 -999.00000 680.00000 -999.00000 
0.25839 0.91440 -0.03742 -0.09302 400.11125 0.00000 273.47816 0.00000 -999.00000 680.00000 -999.00000 
0.25016 0.91440 -0.03733 -0.09566 404.01531 0.00000 273.47199 0.00000 -999.00000 680.00000 -999.00000 
0.24193 0.91440 -0.03721 -0.09809 407.99238 0.00000 273.46631 0.00000 -999.00000 680.00000 -999.00000 
0.23369 0.91440 -0.03706 -0.10025 412.06612 0.00000 273.46127 0.00000 -999.00000 680.00000 -999.00000 
0.22546 0.91440 -0.03687 -0.10211 416.26797 0.00000 273.45699 0.00000 -999.00000 680.00000 -999.00000 
0.21723 0.91440 -0.03665 -0.10368 420.59802 0.00000 273.45338 0.00000 -999.00000 680.00000 -999.00000 
0.20900 0.91440 -0.03639 -0.10493 425.02203 0.00000 273.45055 0.00000 -999.00000 680.00000 -999.00000 
0.20078 0.91440 -0.03609 -0.10579 429.48787 0.00000 273.44864 0.00000 -999.00000 680.00000 -999.00000 
0.19255 0.91440 -0.03576 -0.10612 433.93768 0.00000 273.44797 0.00000 -999.00000 680.00000 -999.00000 
0.18433 0.91440 -0.03537 -0.10598 438.30238 0.00000 273.44842 0.00000 -999.00000 680.00000 -999.00000 
0.17610 0.91440 -0.03494 -0.10525 442.50980 0.00000 273.45022 0.00000 -999.00000 680.00000 -999.00000 
0.16820 0.91440 -0.03448 -0.10387 446.52100 0.00000 273.45351 0.00000 -999.00000 680.00000 -999.00000 
0.16067 0.91440 -0.03400 -0.10209 450.36308 0.00000 273.45783 0.00000 -999.00000 680.00000 -999.00000 
0.15350 0.91440 -0.03349 -0.09989 454.05667 0.00096 273.46245 0.00000 -999.00000 680.00000 -999.00000 
0.14668 0.91440 -0.03297 -0.09728 457.58928 0.00279 273.46745 0.00000 -999.00000 680.00000 -999.00000 
0.14019 0.91440 -0.03243 -0.09423 460.98147 0.00456 273.47353 0.00000 -999.00000 680.00000 -999.00000 
0.13400 0.91440 -0.03188 -0.09076 464.20521 0.00637 273.48063 0.00000 -999.00000 680.00000 -999.00000 
0.12812 0.91440 -0.03132 -0.08688 467.18223 0.00819 273.48868 0.00000 -999.00000 680.00000 -999.00000 
0.12252 0.91440 -0.03075 -0.08256 469.92445 0.01004 273.49775 0.00000 -999.00000 680.00000 -999.00000 
0.11719 0.91440 -0.03017 -0.07788 472.49006 0.01189 273.50770 0.00000 -999.00000 680.00000 -999.00000 
0.11212 0.91440 -0.02959 -0.07286 474.92381 0.01377 273.51843 0.00000 -999.00000 680.00000 -999.00000 
0.10729 0.91440 -0.02901 -0.06744 477.33638 0.01564 273.53013 0.00000 -999.00000 680.00000 -999.00000 
0.10270 0.91440 -0.02842 -0.06166 479.80366 0.01753 273.54267 0.00000 -999.00000 680.00000 -999.00000 
0.09832 0.91440 -0.02783 -0.05562 482.32006 0.01942 273.55584 0.00000 -999.00000 680.00000 -999.00000 
0.09416 0.91440 -0.02725 -0.04911 484.75364 0.02131 273.57013 0.00000 -999.00000 680.00000 -999.00000 
0.09021 0.91440 -0.02667 -0.04373 487.02967 0.02321 273.58171 0.00000 -999.00000 680.00000 -999.00000 
0.08644 0.91440 -0.02609 -0.03566 491.50232 0.02515 273.59978 0.00000 -999.00000 680.00000 -999.00000 
0.08262 0.91440 -0.02547 -0.02660 497.28022 0.02718 273.62024 0.00000 -999.00000 680.00000 -999.00000 
0.07881 0.91440 -0.02483 -0.01918 502.18074 0.02932 273.63669 0.00000 -999.00000 680.00000 -999.00000 
0.07500 0.91440 -0.02417 -0.00980 507.29448 0.03158 273.65776 0.00000 -999.00000 680.00000 -999.00000 
0.07120 0.91440 -0.02347 0.00063 512.68343 0.03396 273.68124 0.00000 -999.00000 680.00000 -999.00000 
0.06740 0.91440 -0.02274 0.01233 518.22581 0.03650 273.70771 0.00000 -999.00000 680.00000 -999.00000 
0.06361 0.91440 -0.02197 0.02545 523.71051 0.03921 273.73742 0.00000 -999.00000 680.00000 -999.00000 
0.05982 0.91440 -0.02117 0.03999 529.03379 0.04209 273.77043 0.00000 -999.00000 680.00000 -999.00000 
0.05605 0.91440 -0.02033 0.05622 534.32719 0.04517 273.80732 0.00000 -999.00000 680.00000 -999.00000 
0.05228 0.91440 -0.01945 0.07415 539.92648 0.05214 273.84558 0.00000 -999.00000 680.00000 -999.00000 
0.04853 0.91440 -0.01853 0.09393 546.22861 0.06353 273.88525 0.00000 -999.00000 680.00000 -999.00000 
0.04478 0.91440 -0.01755 0.11654 553.12943 0.07637 273.93072 0.00000 -999.00000 680.00000 -999.00000 
0.04106 0.91440 -0.01653 0.14248 559.93921 0.09077 273.98302 0.00000 -999.00000 680.00000 -999.00000 
0.03734 0.91440 -0.01544 0.17209 566.22347 0.10684 274.04271 0.00000 -999.00000 680.00000 -999.00000 
0.03365 0.91440 -0.01429 0.20557 572.18206 0.12489 274.11003 0.00000 -999.00000 680.00000 -999.00000 
0.02998 0.91440 -0.01306 0.24440 577.64145 0.14530 274.18806 0.00000 -999.00000 680.00000 -999.00000 