#+++++++++++++++++++++++++++++++++++++++++++++++++++++++++++++++++++++++++++++++++++++++++++++++++++++++++++++++++++++++++++++++++
#
#   IPW-3 Cut/Slice DATA SUBMITTAL FORM for Test Case NACA0012_AE3933, May 18th 2026
#
#       NOMENCLATURE:
#                  X [m]:  X-coordinate of the surface (clean for reference)
#                  Y [m]:  Y-coordinate of the surface (clean for reference)
#                  Z [m]:  Z-coordinate of the surface (clean for reference)
#                 Cp [-]:  Pressure coefficient
#            HTC [W/m2K]:  Convective Heat Transfer Coefficient (on the rough surface)
#               Beta [-]:  Collection efficiency
#                 Ts [K]:  Surface temperature
#                 FF [-]:  Freezing fraction
#                  k [m]:  Surface roughness height if variable (OPTIONAL)
#         RhoIce [kg/m3]:  Ice density (OPTIONAL)
#      HTC_CLEAN [W/m2K]:  Convective Heat Transfer Coefficient on the surface without roughness (OPTIONAL)
#
#                XXmm:  Roughness height used for the case, in mm.
#                       In the zone name, use the format KS_XXmm.
#                       For example, if k_s = 1.5 mm, use KS_1p5mm. 
#                       For Variable roughness, use KS_VAR
#
#    FLOW CONDITIONS:
#                                   AOA: 4.0 deg
#                           Mach Number: 0.3127 [-]
#       Mean aerodynamic chord (M.A.C.): 0.5334 [m]
#                       Reynolds Number: 3.8947 million (based on MAC)
#                       Freestream Temp: 270.95 [K]
#                        Reference area: 0.97548 [m2]
#               Moment Reference Center: 0.13335, 0, 0 [m] (X, Y, Z)
#
#    ICING CONDITIONS:
#                           Icing Time: 420 [s]
#                                  LWC: 0.55 [g/m3]
#                                  MVD: 20 [μm]
#
#              NOTES: 1. Please use at least 5 decimal places in the numerical values
#                     2. If data are NOT provided, please fill data fields with a numerical value of "-999" 
#
#++++++++++++++++++++++++++++++++++++++++++++++++++++++++++++++++++++++++++++++++++++++++++++++++++++++++++++++++++++

                                                    <- Optional ->                 
VARIABLES = "X" "Y" "Z" "Cp" "HTC" "Beta" "Ts" "FF" "k" "RhoIce" "HTC_CLEAN"


ZONE T="SLICE_Y_0p9144_BINS01_KS_0p5mm_CUTDATA"
0.53242 0.91440 -0.02798 0.05223 124.57362 0.00000 275.58300 0.00000 -999.00000 680.00000 -999.00000 
0.53241 0.91440 -0.02813 0.04600 111.19049 0.00000 275.56509 0.00000 -999.00000 680.00000 -999.00000 
0.53240 0.91440 -0.02828 0.03103 89.28834 0.00000 275.52329 0.00000 -999.00000 680.00000 -999.00000 
0.53239 0.91440 -0.02843 -0.04217 105.68696 0.00000 274.46084 0.00000 -999.00000 680.00000 -999.00000 
0.53238 0.91440 -0.02858 -0.10531 135.00532 0.00000 273.42707 0.00000 -999.00000 680.00000 -999.00000 
0.53086 0.91440 -0.02868 0.13616 277.41447 0.00000 274.02197 0.00000 -999.00000 680.00000 -999.00000 
0.52843 0.91440 -0.02885 0.09999 286.21399 0.00000 273.93541 0.00000 -999.00000 680.00000 -999.00000 
0.52453 0.91440 -0.02911 0.09481 279.28855 0.00000 273.92259 0.00000 -999.00000 680.00000 -999.00000 
0.51931 0.91440 -0.02946 0.08576 280.00247 0.00000 273.90087 0.00000 -999.00000 680.00000 -999.00000 
0.51409 0.91440 -0.02980 0.07821 283.23298 0.00000 273.88293 0.00000 -999.00000 680.00000 -999.00000 
0.50887 0.91440 -0.03013 0.07069 287.14977 0.00000 273.86511 0.00000 -999.00000 680.00000 -999.00000 
0.50365 0.91440 -0.03045 0.06361 291.06404 0.00000 273.84834 0.00000 -999.00000 680.00000 -999.00000 
0.49843 0.91440 -0.03077 0.05685 294.64837 0.00000 273.83233 0.00000 -999.00000 680.00000 -999.00000 
0.49321 0.91440 -0.03107 0.05044 297.87443 0.00000 273.81713 0.00000 -999.00000 680.00000 -999.00000 
0.48799 0.91440 -0.03137 0.04436 300.82761 0.00000 273.80269 0.00000 -999.00000 680.00000 -999.00000 
0.48277 0.91440 -0.03166 0.03860 303.59181 0.00000 273.78902 0.00000 -999.00000 680.00000 -999.00000 
0.47754 0.91440 -0.03195 0.03313 306.21146 0.00000 273.77605 0.00000 -999.00000 680.00000 -999.00000 
0.47232 0.91440 -0.03223 0.02793 308.70860 0.00000 273.76372 0.00000 -999.00000 680.00000 -999.00000 
0.46710 0.91440 -0.03250 0.02298 311.09204 0.00000 273.75199 0.00000 -999.00000 680.00000 -999.00000 
0.46187 0.91440 -0.03276 0.01824 313.37442 0.00000 273.74074 0.00000 -999.00000 680.00000 -999.00000 
0.45665 0.91440 -0.03302 0.01372 315.57143 0.00000 273.73003 0.00000 -999.00000 680.00000 -999.00000 
0.45143 0.91440 -0.03327 0.00939 317.68579 0.00000 273.71974 0.00000 -999.00000 680.00000 -999.00000 
0.44620 0.91440 -0.03351 0.00521 319.73177 0.00000 273.70984 0.00000 -999.00000 680.00000 -999.00000 
0.44098 0.91440 -0.03374 0.00121 321.71835 0.00000 273.70037 0.00000 -999.00000 680.00000 -999.00000 
0.43575 0.91440 -0.03397 -0.00265 323.64756 0.00000 273.69120 0.00000 -999.00000 680.00000 -999.00000 
0.43052 0.91440 -0.03420 -0.00639 325.53414 0.00000 273.68235 0.00000 -999.00000 680.00000 -999.00000 
0.42530 0.91440 -0.03441 -0.01000 327.38549 0.00000 273.67379 0.00000 -999.00000 680.00000 -999.00000 
0.42007 0.91440 -0.03462 -0.01350 329.20693 0.00000 273.66550 0.00000 -999.00000 680.00000 -999.00000 
0.41484 0.91440 -0.03482 -0.01690 331.00448 0.00000 273.65745 0.00000 -999.00000 680.00000 -999.00000 
0.40962 0.91440 -0.03502 -0.02020 332.78473 0.00000 273.64963 0.00000 -999.00000 680.00000 -999.00000 
0.40439 0.91440 -0.03521 -0.02341 334.54946 0.00000 273.64204 0.00000 -999.00000 680.00000 -999.00000 
0.39916 0.91440 -0.03539 -0.02652 336.29893 0.00000 273.63466 0.00000 -999.00000 680.00000 -999.00000 
0.39394 0.91440 -0.03556 -0.02956 338.03452 0.00000 273.62748 0.00000 -999.00000 680.00000 -999.00000 
0.38871 0.91440 -0.03573 -0.03251 339.75596 0.00000 273.62049 0.00000 -999.00000 680.00000 -999.00000 
0.38348 0.91440 -0.03589 -0.03542 341.46791 0.00000 273.61361 0.00000 -999.00000 680.00000 -999.00000 
0.37825 0.91440 -0.03605 -0.03825 343.17563 0.00000 273.60692 0.00000 -999.00000 680.00000 -999.00000 
0.37302 0.91440 -0.03620 -0.04102 344.87187 0.00000 273.60037 0.00000 -999.00000 680.00000 -999.00000 
0.36779 0.91440 -0.03634 -0.04376 346.56152 0.00000 273.59389 0.00000 -999.00000 680.00000 -999.00000 
0.36257 0.91440 -0.03647 -0.04643 348.25762 0.00000 273.58757 0.00000 -999.00000 680.00000 -999.00000 
0.35734 0.91440 -0.03660 -0.04906 349.95418 0.00000 273.58136 0.00000 -999.00000 680.00000 -999.00000 
0.35211 0.91440 -0.03672 -0.05166 351.65497 0.00000 273.57523 0.00000 -999.00000 680.00000 -999.00000 
0.34688 0.91440 -0.03683 -0.05420 353.36374 0.00000 273.56923 0.00000 -999.00000 680.00000 -999.00000 
0.34165 0.91440 -0.03693 -0.05671 355.07898 0.00000 273.56331 0.00000 -999.00000 680.00000 -999.00000 
0.33642 0.91440 -0.03703 -0.05917 356.80845 0.00000 273.55748 0.00000 -999.00000 680.00000 -999.00000 
0.33119 0.91440 -0.03712 -0.06161 358.55622 0.00000 273.55174 0.00000 -999.00000 680.00000 -999.00000 
0.32596 0.91440 -0.03720 -0.06400 360.32472 0.00000 273.54609 0.00000 -999.00000 680.00000 -999.00000 
0.32073 0.91440 -0.03727 -0.06636 362.11608 0.00000 273.54052 0.00000 -999.00000 680.00000 -999.00000 
0.31550 0.91440 -0.03733 -0.06869 363.93153 0.00000 273.53504 0.00000 -999.00000 680.00000 -999.00000 
0.31027 0.91440 -0.03739 -0.07098 365.77438 0.00000 273.52965 0.00000 -999.00000 680.00000 -999.00000 
0.30504 0.91440 -0.03743 -0.07323 367.64669 0.00000 273.52434 0.00000 -999.00000 680.00000 -999.00000 
0.29981 0.91440 -0.03747 -0.07544 369.54631 0.00000 273.51912 0.00000 -999.00000 680.00000 -999.00000 
0.29458 0.91440 -0.03750 -0.07762 371.47103 0.00000 273.51400 0.00000 -999.00000 680.00000 -999.00000 
0.28935 0.91440 -0.03752 -0.07975 373.42949 0.00000 273.50898 0.00000 -999.00000 680.00000 -999.00000 
0.28412 0.91440 -0.03753 -0.08183 375.42987 0.00000 273.50408 0.00000 -999.00000 680.00000 -999.00000 
0.27889 0.91440 -0.03753 -0.08387 377.46884 0.00000 273.49930 0.00000 -999.00000 680.00000 -999.00000 
0.27366 0.91440 -0.03752 -0.08584 379.55478 0.00000 273.49465 0.00000 -999.00000 680.00000 -999.00000 
0.26843 0.91440 -0.03750 -0.08776 381.70734 0.00000 273.49016 0.00000 -999.00000 680.00000 -999.00000 
0.26320 0.91440 -0.03746 -0.08961 383.92591 0.00000 273.48581 0.00000 -999.00000 680.00000 -999.00000 
0.25797 0.91440 -0.03742 -0.09140 386.19165 0.00000 273.48162 0.00000 -999.00000 680.00000 -999.00000 
0.25273 0.91440 -0.03736 -0.09312 388.48817 0.00000 273.47759 0.00000 -999.00000 680.00000 -999.00000 
0.24750 0.91440 -0.03730 -0.09477 390.80580 0.00000 273.47372 0.00000 -999.00000 680.00000 -999.00000 
0.24227 0.91440 -0.03722 -0.09636 393.14554 0.00000 273.47001 0.00000 -999.00000 680.00000 -999.00000 
0.23705 0.91440 -0.03712 -0.09787 395.51199 0.00000 273.46648 0.00000 -999.00000 680.00000 -999.00000 
0.23182 0.91440 -0.03702 -0.09930 397.91101 0.00000 273.46314 0.00000 -999.00000 680.00000 -999.00000 
0.22659 0.91440 -0.03690 -0.10064 400.35109 0.00000 273.46002 0.00000 -999.00000 680.00000 -999.00000 
0.22136 0.91440 -0.03677 -0.10188 402.83775 0.00000 273.45714 0.00000 -999.00000 680.00000 -999.00000 
0.21613 0.91440 -0.03662 -0.10301 405.37396 0.00000 273.45452 0.00000 -999.00000 680.00000 -999.00000 
0.21090 0.91440 -0.03646 -0.10403 407.96590 0.00000 273.45217 0.00000 -999.00000 680.00000 -999.00000 
0.20567 0.91440 -0.03628 -0.10491 410.62122 0.00000 273.45013 0.00000 -999.00000 680.00000 -999.00000 
0.20045 0.91440 -0.03608 -0.10565 413.34774 0.00000 273.44845 0.00000 -999.00000 680.00000 -999.00000 
0.19522 0.91440 -0.03587 -0.10624 416.16302 0.00000 273.44710 0.00000 -999.00000 680.00000 -999.00000 
0.19000 0.91440 -0.03564 -0.10664 419.08922 0.00000 273.44624 0.00000 -999.00000 680.00000 -999.00000 
0.18477 0.91440 -0.03539 -0.10680 422.12951 0.00000 273.44592 0.00000 -999.00000 680.00000 -999.00000 
0.17955 0.91440 -0.03513 -0.10677 425.28592 0.00000 273.44609 0.00000 -999.00000 680.00000 -999.00000 
0.17432 0.91440 -0.03484 -0.10653 428.56845 0.00000 273.44674 0.00000 -999.00000 680.00000 -999.00000 
0.16910 0.91440 -0.03454 -0.10602 431.96209 0.00000 273.44803 0.00000 -999.00000 680.00000 -999.00000 
0.16388 0.91440 -0.03421 -0.10528 435.43020 0.00000 273.44988 0.00000 -999.00000 680.00000 -999.00000 
0.15866 0.91440 -0.03386 -0.10425 438.95522 0.00000 273.45240 0.00000 -999.00000 680.00000 -999.00000 
0.15345 0.91440 -0.03349 -0.10290 442.53163 0.00000 273.45572 0.00000 -999.00000 680.00000 -999.00000 
0.14823 0.91440 -0.03309 -0.10119 446.17488 0.00000 273.45988 0.00000 -999.00000 680.00000 -999.00000 
0.14302 0.91440 -0.03267 -0.09909 449.91408 0.00000 273.46495 0.00000 -999.00000 680.00000 -999.00000 
0.13781 0.91440 -0.03223 -0.09655 453.75330 0.00000 273.47109 0.00000 -999.00000 680.00000 -999.00000 
0.13258 0.91440 -0.03175 -0.09362 457.61156 0.00000 273.47815 0.00000 -999.00000 680.00000 -999.00000 
0.12761 0.91440 -0.03127 -0.09041 461.35738 0.00000 273.48590 0.00000 -999.00000 680.00000 -999.00000 
0.12288 0.91440 -0.03079 -0.08690 464.91829 0.00000 273.49434 0.00000 -999.00000 680.00000 -999.00000 
0.11837 0.91440 -0.03030 -0.08314 468.30885 0.00000 273.50338 0.00000 -999.00000 680.00000 -999.00000 
0.11408 0.91440 -0.02982 -0.07903 471.55929 0.00000 273.51327 0.00000 -999.00000 680.00000 -999.00000 
0.11000 0.91440 -0.02934 -0.07468 474.67882 0.00000 273.52372 0.00000 -999.00000 680.00000 -999.00000 
0.10611 0.91440 -0.02886 -0.07003 477.71571 0.00000 273.53487 0.00000 -999.00000 680.00000 -999.00000 
0.10242 0.91440 -0.02838 -0.06514 480.65251 0.00000 273.54660 0.00000 -999.00000 680.00000 -999.00000 
0.09890 0.91440 -0.02791 -0.06012 483.46018 0.00000 273.55867 0.00000 -999.00000 680.00000 -999.00000 
0.09555 0.91440 -0.02745 -0.05503 486.16116 0.00000 273.57088 0.00000 -999.00000 680.00000 -999.00000 
0.09236 0.91440 -0.02699 -0.04977 488.66102 0.00000 273.58351 0.00000 -999.00000 680.00000 -999.00000 
0.08933 0.91440 -0.02653 -0.04565 490.95109 0.00000 273.59351 0.00000 -999.00000 680.00000 -999.00000 
0.08644 0.91440 -0.02609 -0.03903 495.00692 0.00000 273.60948 0.00000 -999.00000 680.00000 -999.00000 
0.08358 0.91440 -0.02563 -0.03156 499.77280 0.00000 273.62738 0.00000 -999.00000 680.00000 -999.00000 
0.08072 0.91440 -0.02516 -0.02622 503.29839 0.00000 273.64018 0.00000 -999.00000 680.00000 -999.00000 
0.07786 0.91440 -0.02467 -0.01956 506.87350 0.00000 273.65618 0.00000 -999.00000 680.00000 -999.00000 
0.07501 0.91440 -0.02417 -0.01219 510.68765 0.00000 273.67390 0.00000 -999.00000 680.00000 -999.00000 
0.07216 0.91440 -0.02365 -0.00421 514.59244 0.00000 273.69311 0.00000 -999.00000 680.00000 -999.00000 
0.06931 0.91440 -0.02311 0.00440 518.50279 0.00000 273.71383 0.00000 -999.00000 680.00000 -999.00000 
0.06646 0.91440 -0.02255 0.01366 522.35383 0.00000 273.73613 0.00000 -999.00000 680.00000 -999.00000 
0.06362 0.91440 -0.02198 0.02367 526.11502 0.00163 273.75909 0.00000 -999.00000 680.00000 -999.00000 
0.06079 0.91440 -0.02138 0.03445 529.83312 0.00718 273.78114 0.00000 -999.00000 680.00000 -999.00000 
0.05795 0.91440 -0.02076 0.04610 533.65644 0.01544 273.80339 0.00000 -999.00000 680.00000 -999.00000 
0.05513 0.91440 -0.02012 0.05862 537.80145 0.02450 273.82722 0.00000 -999.00000 680.00000 -999.00000 
0.05230 0.91440 -0.01946 0.07211 542.50301 0.03431 273.85290 0.00000 -999.00000 680.00000 -999.00000 
0.04949 0.91440 -0.01877 0.08688 547.80730 0.04488 273.88115 0.00000 -999.00000 680.00000 -999.00000 
0.04668 0.91440 -0.01805 0.10307 553.49896 0.05630 273.91226 0.00000 -999.00000 680.00000 -999.00000 
0.04388 0.91440 -0.01731 0.12106 559.22332 0.06868 273.94703 0.00000 -999.00000 680.00000 -999.00000 
0.04109 0.91440 -0.01654 0.14089 564.62397 0.08205 273.98546 0.00000 -999.00000 680.00000 -999.00000 
0.03830 0.91440 -0.01573 0.16266 569.56553 0.09655 274.02760 0.00000 -999.00000 680.00000 -999.00000 
0.03553 0.91440 -0.01488 0.18641 574.40414 0.11242 274.07343 0.00000 -999.00000 680.00000 -999.00000 
0.03277 0.91440 -0.01400 0.21263 579.71859 0.12976 274.12406 0.00000 -999.00000 680.00000 -999.00000 
0.03002 0.91440 -0.01307 0.24265 585.08096 0.14872 274.18241 0.00000 -999.00000 680.00000 -999.00000 
0.02729 0.91440 -0.01210 0.27678 589.11475 0.16950 274.24870 0.00000 -999.00000 680.00000 -999.00000 
0.02458 0.91440 -0.01108 0.31448 591.65249 0.19235 274.32125 0.00000 -999.00000 680.00000 -999.00000 
0.02189 0.91440 -0.00999 0.35735 593.57023 0.21787 274.40328 0.00000 -999.00000 680.00000 -999.00000 
0.01923 0.91440 -0.00884 0.40683 593.95529 0.24664 274.49738 0.00000 -999.00000 680.00000 -999.00000 
0.01660 0.91440 -0.00761 0.46360 591.60465 0.27924 274.60361 0.00000 -999.00000 680.00000 -999.00000 
0.01402 0.91440 -0.00629 0.53010 586.52220 0.31666 274.72574 0.00000 -999.00000 680.00000 -999.00000 
0.01150 0.91440 -0.00487 0.60852 578.03414 0.36026 274.86627 0.00000 -999.00000 680.00000 -999.00000 
0.00905 0.91440 -0.00332 0.70363 567.62637 0.41189 275.03304 0.00000 -999.00000 680.00000 -999.00000 
0.00672 0.91440 -0.00160 0.80923 556.81959 0.47134 275.17081 0.00000 -999.00000 680.00000 -999.00000 
0.00474 0.91440 0.00013 0.90907 545.67426 0.53476 275.18226 0.00000 -999.00000 680.00000 -999.00000 
0.00318 0.91440 0.00178 0.99022 530.90771 0.59733 275.10305 0.00000 -999.00000 680.00000 -999.00000 
0.00202 0.91440 0.00337 1.03219 528.54837 0.65394 275.06368 0.00000 -999.00000 680.00000 -999.00000 
0.00117 0.91440 0.00490 1.00446 600.13842 0.69804 275.10267 0.00000 -999.00000 680.00000 -999.00000 
0.00063 0.91440 0.00638 0.89316 743.48860 0.72443 275.17422 0.00000 -999.00000 680.00000 -999.00000 
0.00035 0.91440 0.00785 0.68663 887.90747 0.72399 274.95271 0.00000 -999.00000 680.00000 -999.00000 
0.00032 0.91440 0.00930 0.55592 953.65095 0.71519 274.69328 0.00000 -999.00000 680.00000 -999.00000 
0.00055 0.91440 0.01073 0.02802 1059.54540 0.62881 273.57006 0.00000 -999.00000 680.00000 -999.00000 
0.00103 0.91440 0.01214 -0.33836 1105.20759 0.54312 273.16545 0.00951 -999.00000 680.00000 -999.00000 
0.00176 0.91440 0.01352 -0.68403 1125.40933 0.44081 273.15000 0.02827 -999.00000 680.00000 -999.00000 
0.00280 0.91440 0.01492 -0.95835 1100.54902 0.33170 273.15000 0.04464 -999.00000 680.00000 -999.00000 
0.00417 0.91440 0.01632 -1.14714 1045.60293 0.22068 273.15000 0.05900 -999.00000 680.00000 -999.00000 
0.00592 0.91440 0.01774 -1.26413 994.17773 0.11277 273.15000 0.07454 -999.00000 680.00000 -999.00000 
0.00809 0.91440 0.01916 -1.32633 948.60452 0.03024 273.15000 0.09155 -999.00000 680.00000 -999.00000 
0.01063 0.91440 0.02054 -1.34896 906.03326 0.00000 273.15000 0.10465 -999.00000 680.00000 -999.00000 
0.01325 0.91440 0.02173 -1.34024 871.54025 0.00000 273.15000 0.11396 -999.00000 680.00000 -999.00000 
0.01594 0.91440 0.02279 -1.31858 844.41162 0.00000 273.15000 0.12515 -999.00000 680.00000 -999.00000 
0.01866 0.91440 0.02374 -1.29261 820.89498 0.00000 273.15000 0.13948 -999.00000 680.00000 -999.00000 
0.02142 0.91440 0.02459 -1.26467 800.28929 0.00000 273.15000 0.15879 -999.00000 680.00000 -999.00000 
0.02420 0.91440 0.02536 -1.23814 781.63363 0.00000 273.15000 0.18648 -999.00000 680.00000 -999.00000 
0.02700 0.91440 0.02606 -1.21168 764.75502 0.00000 273.15000 0.22890 -999.00000 680.00000 -999.00000 
0.02981 0.91440 0.02670 -1.18632 749.09076 0.00000 273.15000 0.30222 -999.00000 680.00000 -999.00000 
0.03263 0.91440 0.02729 -1.16235 733.92146 0.00000 273.15000 0.46084 -999.00000 680.00000 -999.00000 
0.03547 0.91440 0.02782 -1.13886 719.10043 0.00000 272.57734 0.78607 -999.00000 680.00000 -999.00000 
0.03831 0.91440 0.02831 -1.11622 704.94071 0.00000 273.49976 0.50000 -999.00000 680.00000 -999.00000 
0.04116 0.91440 0.02876 -1.09500 691.46409 0.00000 275.00092 0.00000 -999.00000 680.00000 -999.00000 
0.04401 0.91440 0.02918 -1.07480 678.65411 0.00000 275.01286 0.00000 -999.00000 680.00000 -999.00000 
0.04687 0.91440 0.02956 -1.05573 666.54178 0.00000 275.02411 0.00000 -999.00000 680.00000 -999.00000 
0.04974 0.91440 0.02991 -1.03770 655.03605 0.00000 275.03471 0.00000 -999.00000 680.00000 -999.00000 
0.05260 0.91440 0.03023 -1.02027 644.11323 0.00000 275.04495 0.00000 -999.00000 680.00000 -999.00000 
0.05547 0.91440 0.03052 -1.00352 633.77557 0.00000 275.05477 0.00000 -999.00000 680.00000 -999.00000 
0.05835 0.91440 0.03078 -0.98744 623.94190 0.00000 275.06418 0.00000 -999.00000 680.00000 -999.00000 
0.06122 0.91440 0.03103 -0.97191 614.57582 0.00000 275.07326 0.00000 -999.00000 680.00000 -999.00000 
0.06410 0.91440 0.03124 -0.95686 605.69473 0.00000 275.08204 0.00000 -999.00000 680.00000 -999.00000 
0.06697 0.91440 0.03144 -0.94240 597.27212 0.00000 275.09047 0.00000 -999.00000 680.00000 -999.00000 
0.06985 0.91440 0.03162 -0.92846 589.24235 0.00000 275.09858 0.00000 -999.00000 680.00000 -999.00000 
0.07273 0.91440 0.03178 -0.91490 581.59487 0.00000 275.10646 0.00000 -999.00000 680.00000 -999.00000 
0.07562 0.91440 0.03191 -0.90172 574.34043 0.00000 275.11411 0.00000 -999.00000 680.00000 -999.00000 
0.07850 0.91440 0.03203 -0.88898 567.42229 0.00000 275.12150 0.00000 -999.00000 680.00000 -999.00000 
0.08138 0.91440 0.03214 -0.87661 560.74337 0.00000 275.12866 0.00000 -999.00000 680.00000 -999.00000 
0.08426 0.91440 0.03223 -0.86458 554.47187 0.00000 275.13563 0.00000 -999.00000 680.00000 -999.00000 
0.08715 0.91440 0.03230 -0.85078 548.98283 0.00000 275.14367 0.00000 -999.00000 680.00000 -999.00000 
0.09003 0.91440 0.03235 -0.84135 542.42995 0.00000 275.14904 0.00000 -999.00000 680.00000 -999.00000 
0.09283 0.91440 0.03239 -0.83214 536.17693 0.00000 275.15428 0.00000 -999.00000 680.00000 -999.00000 
0.09576 0.91440 0.03242 -0.81922 531.84295 0.00000 275.16183 0.00000 -999.00000 680.00000 -999.00000 
0.09885 0.91440 0.03244 -0.80803 527.38731 0.00000 275.16832 0.00000 -999.00000 680.00000 -999.00000 
0.10208 0.91440 0.03244 -0.79617 522.69250 0.00000 275.17519 0.00000 -999.00000 680.00000 -999.00000 
0.10548 0.91440 0.03242 -0.78412 517.90208 0.00000 275.18216 0.00000 -999.00000 680.00000 -999.00000 
0.10905 0.91440 0.03239 -0.77172 513.03994 0.00000 275.18933 0.00000 -999.00000 680.00000 -999.00000 
0.11280 0.91440 0.03233 -0.75899 508.16617 0.00000 275.19668 0.00000 -999.00000 680.00000 -999.00000 
0.11673 0.91440 0.03225 -0.74601 503.29212 0.00000 275.20418 0.00000 -999.00000 680.00000 -999.00000 
0.12086 0.91440 0.03215 -0.73272 498.42381 0.00000 275.21185 0.00000 -999.00000 680.00000 -999.00000 
0.12519 0.91440 0.03202 -0.71909 493.55583 0.00000 275.21970 0.00000 -999.00000 680.00000 -999.00000 
0.12975 0.91440 0.03185 -0.70510 488.63165 0.00000 275.22776 0.00000 -999.00000 680.00000 -999.00000 
0.13452 0.91440 0.03166 -0.69082 483.55603 0.00000 275.23597 0.00000 -999.00000 680.00000 -999.00000 
0.13954 0.91440 0.03143 -0.67630 478.22536 0.00000 275.24429 0.00000 -999.00000 680.00000 -999.00000 
0.14480 0.91440 0.03116 -0.66149 472.68014 0.00000 275.25276 0.00000 -999.00000 680.00000 -999.00000 
0.15006 0.91440 0.03086 -0.64680 467.11264 0.00000 275.26114 0.00000 -999.00000 680.00000 -999.00000 
0.15532 0.91440 0.03054 -0.63248 461.59489 0.00000 275.26929 0.00000 -999.00000 680.00000 -999.00000 
0.16058 0.91440 0.03019 -0.61836 456.14318 0.00000 275.27730 0.00000 -999.00000 680.00000 -999.00000 
0.16583 0.91440 0.02981 -0.60460 450.76163 0.00000 275.28510 0.00000 -999.00000 680.00000 -999.00000 
0.17108 0.91440 0.02942 -0.59113 445.44349 0.00000 275.29270 0.00000 -999.00000 680.00000 -999.00000 
0.17633 0.91440 0.02900 -0.57783 440.27660 0.00000 275.30021 0.00000 -999.00000 680.00000 -999.00000 
0.18158 0.91440 0.02856 -0.56482 435.32986 0.00000 275.30754 0.00000 -999.00000 680.00000 -999.00000 
0.18683 0.91440 0.02811 -0.55214 430.59894 0.00000 275.31468 0.00000 -999.00000 680.00000 -999.00000 
0.19207 0.91440 0.02763 -0.53975 426.04529 0.00000 275.32165 0.00000 -999.00000 680.00000 -999.00000 
0.19732 0.91440 0.02713 -0.52763 421.61254 0.00000 275.32846 0.00000 -999.00000 680.00000 -999.00000 
0.20256 0.91440 0.02662 -0.51569 417.27248 0.00000 275.33516 0.00000 -999.00000 680.00000 -999.00000 
0.20780 0.91440 0.02609 -0.50386 413.04122 0.00000 275.34178 0.00000 -999.00000 680.00000 -999.00000 
0.21304 0.91440 0.02554 -0.49218 408.94453 0.00000 275.34832 0.00000 -999.00000 680.00000 -999.00000 
0.21827 0.91440 0.02498 -0.48064 405.00305 0.00000 275.35478 0.00000 -999.00000 680.00000 -999.00000 
0.22351 0.91440 0.02440 -0.46930 401.20586 0.00000 275.36112 0.00000 -999.00000 680.00000 -999.00000 
0.22874 0.91440 0.02380 -0.45816 397.51569 0.00000 275.36734 0.00000 -999.00000 680.00000 -999.00000 
0.23397 0.91440 0.02320 -0.44716 393.90969 0.00000 275.37347 0.00000 -999.00000 680.00000 -999.00000 
0.23920 0.91440 0.02257 -0.43631 390.37648 0.00000 275.37952 0.00000 -999.00000 680.00000 -999.00000 
0.24443 0.91440 0.02194 -0.42562 386.90046 0.00000 275.38546 0.00000 -999.00000 680.00000 -999.00000 
0.24966 0.91440 0.02129 -0.41509 383.46835 0.00000 275.39131 0.00000 -999.00000 680.00000 -999.00000 
0.25489 0.91440 0.02063 -0.40468 380.07542 0.00000 275.39708 0.00000 -999.00000 680.00000 -999.00000 
0.26011 0.91440 0.01995 -0.39441 376.71820 0.00000 275.40276 0.00000 -999.00000 680.00000 -999.00000 
0.26533 0.91440 0.01927 -0.38427 373.39077 0.00000 275.40836 0.00000 -999.00000 680.00000 -999.00000 
0.27055 0.91440 0.01857 -0.37425 370.08807 0.00000 275.41388 0.00000 -999.00000 680.00000 -999.00000 
0.27577 0.91440 0.01786 -0.36436 366.80997 0.00000 275.41932 0.00000 -999.00000 680.00000 -999.00000 
0.28099 0.91440 0.01715 -0.35456 363.57339 0.00000 275.42470 0.00000 -999.00000 680.00000 -999.00000 
0.28621 0.91440 0.01642 -0.34486 360.40100 0.00000 275.43002 0.00000 -999.00000 680.00000 -999.00000 
0.29142 0.91440 0.01568 -0.33530 357.29064 0.00000 275.43525 0.00000 -999.00000 680.00000 -999.00000 
0.29663 0.91440 0.01493 -0.32585 354.22717 0.00000 275.44042 0.00000 -999.00000 680.00000 -999.00000 
0.30185 0.91440 0.01417 -0.31649 351.20735 0.00000 275.44553 0.00000 -999.00000 680.00000 -999.00000 
0.30706 0.91440 0.01340 -0.30720 348.23287 0.00000 275.45059 0.00000 -999.00000 680.00000 -999.00000 
0.31227 0.91440 0.01262 -0.29799 345.30104 0.00000 275.45561 0.00000 -999.00000 680.00000 -999.00000 
0.31747 0.91440 0.01184 -0.28884 342.40673 0.00000 275.46058 0.00000 -999.00000 680.00000 -999.00000 
0.32268 0.91440 0.01104 -0.27976 339.54261 0.00000 275.46551 0.00000 -999.00000 680.00000 -999.00000 
0.32789 0.91440 0.01024 -0.27075 336.69978 0.00000 275.47039 0.00000 -999.00000 680.00000 -999.00000 
0.33309 0.91440 0.00943 -0.26179 333.86898 0.00000 275.47524 0.00000 -999.00000 680.00000 -999.00000 
0.33829 0.91440 0.00861 -0.25289 331.04268 0.00000 275.48004 0.00000 -999.00000 680.00000 -999.00000 
0.34349 0.91440 0.00778 -0.24403 328.21606 0.00000 275.48481 0.00000 -999.00000 680.00000 -999.00000 
0.34870 0.91440 0.00695 -0.23521 325.38331 0.00000 275.48955 0.00000 -999.00000 680.00000 -999.00000 
0.35389 0.91440 0.00611 -0.22643 322.53119 0.00000 275.49424 0.00000 -999.00000 680.00000 -999.00000 
0.35909 0.91440 0.00526 -0.21766 319.66155 0.00000 275.49893 0.00000 -999.00000 680.00000 -999.00000 
0.36429 0.91440 0.00440 -0.20889 316.78267 0.00000 275.50360 0.00000 -999.00000 680.00000 -999.00000 
0.36948 0.91440 0.00354 -0.20017 313.87544 0.00000 275.50822 0.00000 -999.00000 680.00000 -999.00000 
0.37468 0.91440 0.00266 -0.19144 310.93394 0.00000 275.51284 0.00000 -999.00000 680.00000 -999.00000 
0.37987 0.91440 0.00179 -0.18270 307.96833 0.00000 275.51745 0.00000 -999.00000 680.00000 -999.00000 
0.38506 0.91440 0.00090 -0.17395 304.97279 0.00000 275.52204 0.00000 -999.00000 680.00000 -999.00000 
0.39026 0.91440 0.00001 -0.16521 301.93381 0.00000 275.52662 0.00000 -999.00000 680.00000 -999.00000 
0.39544 0.91440 -0.00089 -0.15644 298.84774 0.00000 275.53119 0.00000 -999.00000 680.00000 -999.00000 
0.40063 0.91440 -0.00180 -0.14764 295.71627 0.00000 275.53576 0.00000 -999.00000 680.00000 -999.00000 
0.40582 0.91440 -0.00271 -0.13881 292.53325 0.00000 275.54031 0.00000 -999.00000 680.00000 -999.00000 
0.41101 0.91440 -0.00363 -0.12995 289.29205 0.00000 275.54487 0.00000 -999.00000 680.00000 -999.00000 
0.41619 0.91440 -0.00456 -0.12105 285.98542 0.00000 275.54942 0.00000 -999.00000 680.00000 -999.00000 
0.42138 0.91440 -0.00549 -0.11210 282.60381 0.00000 275.55396 0.00000 -999.00000 680.00000 -999.00000 
0.42656 0.91440 -0.00643 -0.10310 279.13720 0.00000 275.55851 0.00000 -999.00000 680.00000 -999.00000 
0.43174 0.91440 -0.00738 -0.09403 275.57862 0.00000 275.56305 0.00000 -999.00000 680.00000 -999.00000 
0.43692 0.91440 -0.00833 -0.08488 271.93648 0.00000 275.56761 0.00000 -999.00000 680.00000 -999.00000 
0.44210 0.91440 -0.00929 -0.07564 268.21796 0.00000 275.57217 0.00000 -999.00000 680.00000 -999.00000 
0.44728 0.91440 -0.01026 -0.06630 264.40696 0.00000 275.57675 0.00000 -999.00000 680.00000 -999.00000 
0.45245 0.91440 -0.01123 -0.05688 260.49634 0.00000 275.58133 0.00000 -999.00000 680.00000 -999.00000 
0.45763 0.91440 -0.01221 -0.04735 256.48584 0.00000 275.58592 0.00000 -999.00000 680.00000 -999.00000 
0.46280 0.91440 -0.01320 -0.03771 252.36210 0.00000 275.59052 0.00000 -999.00000 680.00000 -999.00000 
0.46797 0.91440 -0.01419 -0.02796 248.11705 0.00000 275.59512 0.00000 -999.00000 680.00000 -999.00000 
0.47314 0.91440 -0.01519 -0.01809 243.73629 0.00000 275.59971 0.00000 -999.00000 680.00000 -999.00000 
0.47831 0.91440 -0.01620 -0.00810 239.19555 0.00000 275.60428 0.00000 -999.00000 680.00000 -999.00000 
0.48348 0.91440 -0.01722 0.00201 234.47543 0.00000 275.60883 0.00000 -999.00000 680.00000 -999.00000 
0.48865 0.91440 -0.01824 0.01223 229.55617 0.00000 275.61333 0.00000 -999.00000 680.00000 -999.00000 
0.49381 0.91440 -0.01927 0.02255 224.41642 0.00000 275.61777 0.00000 -999.00000 680.00000 -999.00000 
0.49898 0.91440 -0.02031 0.03293 219.02740 0.00000 275.62208 0.00000 -999.00000 680.00000 -999.00000 
0.50414 0.91440 -0.02135 0.04333 213.41726 0.00000 275.62625 0.00000 -999.00000 680.00000 -999.00000 
0.50930 0.91440 -0.02240 0.05369 207.78606 0.00000 275.63029 0.00000 -999.00000 680.00000 -999.00000 
0.51446 0.91440 -0.02346 0.06409 202.53814 0.00000 275.63438 0.00000 -999.00000 680.00000 -999.00000 
0.51962 0.91440 -0.02453 0.07382 198.25501 0.00000 275.63835 0.00000 -999.00000 680.00000 -999.00000 
0.52477 0.91440 -0.02561 0.08489 196.66995 0.00000 275.64404 0.00000 -999.00000 680.00000 -999.00000 
0.52859 0.91440 -0.02641 0.09165 199.81136 0.00000 275.64903 0.00000 -999.00000 680.00000 -999.00000 
0.53098 0.91440 -0.02692 0.11775 182.87653 0.00000 275.65607 0.00000 -999.00000 680.00000 -999.00000 
0.53247 0.91440 -0.02724 -0.05167 150.43522 0.00000 275.54406 0.00000 -999.00000 680.00000 -999.00000 
0.53246 0.91440 -0.02738 -0.00519 130.96522 0.00000 275.55383 0.00000 -999.00000 680.00000 -999.00000 
0.53245 0.91440 -0.02753 0.04584 117.20771 0.00000 275.57208 0.00000 -999.00000 680.00000 -999.00000 
0.53244 0.91440 -0.02768 0.05133 124.06504 0.00000 275.58215 0.00000 -999.00000 680.00000 -999.00000 
0.53243 0.91440 -0.02783 0.05291 127.09211 0.00000 275.58577 0.00000 -999.00000 680.00000 -999.00000 
0.53242 0.91440 -0.02798 0.05223 124.57362 0.00000 275.58300 0.00000 -999.00000 680.00000 -999.00000 

ZONE T="SLICE_Y_0p9144_BINS03_KS_0p5mm_CUTDATA"
0.53242 0.91440 -0.02798 0.05223 124.57362 0.00000 275.58300 0.00000 -999.00000 680.00000 -999.00000 
0.53241 0.91440 -0.02813 0.04600 111.19049 0.00000 275.56509 0.00000 -999.00000 680.00000 -999.00000 
0.53240 0.91440 -0.02828 0.03103 89.28834 0.00000 275.52329 0.00000 -999.00000 680.00000 -999.00000 
0.53239 0.91440 -0.02843 -0.04217 105.68696 0.00000 274.46084 0.00000 -999.00000 680.00000 -999.00000 
0.53238 0.91440 -0.02858 -0.10531 135.00532 0.00000 273.42707 0.00000 -999.00000 680.00000 -999.00000 
0.53086 0.91440 -0.02868 0.13616 277.41447 0.00000 274.02206 0.00000 -999.00000 680.00000 -999.00000 
0.52843 0.91440 -0.02885 0.09999 286.21399 0.00000 273.93552 0.00000 -999.00000 680.00000 -999.00000 