#+++++++++++++++++++++++++++++++++++++++++++++++++++++++++++++++++++++++++++++++++++++++++++++++++++++++++++++++++++++++++++++++++
#
#   IPW-3 Cut/Slice DATA SUBMITTAL FORM for Test Case NACA0012_AE3933, May 18th 2026
#
#       NOMENCLATURE:
#                  X [m]:  X-coordinate of the surface (clean for reference)
#                  Y [m]:  Y-coordinate of the surface (clean for reference)
#                  Z [m]:  Z-coordinate of the surface (clean for reference)
#                 Cp [-]:  Pressure coefficient
#            HTC [W/m2K]:  Convective Heat Transfer Coefficient (on the rough surface)
#               Beta [-]:  Collection efficiency
#                 Ts [K]:  Surface temperature
#                 FF [-]:  Freezing fraction
#                  k [m]:  Surface roughness height if variable (OPTIONAL)
#         RhoIce [kg/m3]:  Ice density (OPTIONAL)
#      HTC_CLEAN [W/m2K]:  Convective Heat Transfer Coefficient on the surface without roughness (OPTIONAL)
#
#                XXmm:  Roughness height used for the case, in mm.
#                       In the zone name, use the format KS_XXmm.
#                       For example, if k_s = 1.5 mm, use KS_1p5mm. 
#                       For Variable roughness, use KS_VAR
#
#    FLOW CONDITIONS:
#                                   AOA: 4.0 deg
#                           Mach Number: 0.3127 [-]
#       Mean aerodynamic chord (M.A.C.): 0.5334 [m]
#                       Reynolds Number: 3.8947 million (based on MAC)
#                       Freestream Temp: 270.95 [K]
#                        Reference area: 0.97548 [m2]
#               Moment Reference Center: 0.13335, 0, 0 [m] (X, Y, Z)
#
#    ICING CONDITIONS:
#                           Icing Time: 420 [s]
#                                  LWC: 0.55 [g/m3]
#                                  MVD: 20 [μm]
#
#              NOTES: 1. Please use at least 5 decimal places in the numerical values
#                     2. If data are NOT provided, please fill data fields with a numerical value of "-999" 
#
#++++++++++++++++++++++++++++++++++++++++++++++++++++++++++++++++++++++++++++++++++++++++++++++++++++++++++++++++++++

                                                    <- Optional ->                 
VARIABLES = "X" "Y" "Z" "Cp" "HTC" "Beta" "Ts" "FF" "k" "RhoIce" "HTC_CLEAN"

ZONE T="SLICE_Y_0p9144_BINS01_KS_0p5mm_CUTDATA"
0.53243 0.91440 -0.02791 0.08035 160.09553 0.00000 275.62456 0.00000 -999.00000 680.00000 -999.00000 
0.53242 0.91440 -0.02802 0.08021 159.56534 0.00000 275.62417 0.00000 -999.00000 680.00000 -999.00000 
0.53241 0.91440 -0.02813 0.07774 146.77282 0.00000 275.61454 0.00000 -999.00000 680.00000 -999.00000 
0.53240 0.91440 -0.02824 0.07045 127.31456 0.00000 275.59515 0.00000 -999.00000 680.00000 -999.00000 
0.53239 0.91440 -0.02835 0.06099 99.40729 0.00000 275.55473 0.00000 -999.00000 680.00000 -999.00000 
0.53239 0.91440 -0.02846 -0.00278 122.92778 0.00000 274.53073 0.00000 -999.00000 680.00000 -999.00000 
0.53238 0.91440 -0.02858 -0.06208 164.15878 0.00000 273.53530 0.00000 -999.00000 680.00000 -999.00000 
0.53202 0.91440 -0.02860 0.15009 288.97641 0.00000 274.05664 0.00000 -999.00000 680.00000 -999.00000 
0.53144 0.91440 -0.02864 0.10788 284.37674 0.00000 273.95437 0.00000 -999.00000 680.00000 -999.00000 
0.53052 0.91440 -0.02871 0.11139 270.99641 0.00000 273.96191 0.00000 -999.00000 680.00000 -999.00000 
0.52905 0.91440 -0.02881 0.10718 268.44612 0.00000 273.95158 0.00000 -999.00000 680.00000 -999.00000 
0.52669 0.91440 -0.02897 0.10166 268.90225 0.00000 273.93833 0.00000 -999.00000 680.00000 -999.00000 
0.52292 0.91440 -0.02922 0.09503 271.66492 0.00000 273.92259 0.00000 -999.00000 680.00000 -999.00000 
0.51916 0.91440 -0.02947 0.08915 275.27160 0.00000 273.90870 0.00000 -999.00000 680.00000 -999.00000 
0.51540 0.91440 -0.02972 0.08291 278.82954 0.00000 273.89395 0.00000 -999.00000 680.00000 -999.00000 
0.51164 0.91440 -0.02996 0.07698 282.14253 0.00000 273.87990 0.00000 -999.00000 680.00000 -999.00000 
0.50788 0.91440 -0.03019 0.07128 285.18903 0.00000 273.86642 0.00000 -999.00000 680.00000 -999.00000 
0.50412 0.91440 -0.03042 0.06581 288.01212 0.00000 273.85346 0.00000 -999.00000 680.00000 -999.00000 
0.50036 0.91440 -0.03065 0.06061 290.67058 0.00000 273.84112 0.00000 -999.00000 680.00000 -999.00000 
0.49660 0.91440 -0.03088 0.05565 293.18514 0.00000 273.82937 0.00000 -999.00000 680.00000 -999.00000 
0.49284 0.91440 -0.03110 0.05090 295.56664 0.00000 273.81811 0.00000 -999.00000 680.00000 -999.00000 
0.48907 0.91440 -0.03131 0.04637 297.83042 0.00000 273.80736 0.00000 -999.00000 680.00000 -999.00000 
0.48531 0.91440 -0.03152 0.04201 299.98643 0.00000 273.79703 0.00000 -999.00000 680.00000 -999.00000 
0.48155 0.91440 -0.03173 0.03784 302.04713 0.00000 273.78713 0.00000 -999.00000 680.00000 -999.00000 
0.47779 0.91440 -0.03194 0.03383 304.01944 0.00000 273.77762 0.00000 -999.00000 680.00000 -999.00000 
0.47403 0.91440 -0.03214 0.02996 305.91075 0.00000 273.76846 0.00000 -999.00000 680.00000 -999.00000 
0.47027 0.91440 -0.03233 0.02624 307.73004 0.00000 273.75962 0.00000 -999.00000 680.00000 -999.00000 
0.46650 0.91440 -0.03253 0.02264 309.48731 0.00000 273.75109 0.00000 -999.00000 680.00000 -999.00000 
0.46274 0.91440 -0.03272 0.01919 311.18280 0.00000 273.74290 0.00000 -999.00000 680.00000 -999.00000 
0.45898 0.91440 -0.03290 0.01582 312.82131 0.00000 273.73491 0.00000 -999.00000 680.00000 -999.00000 
0.45521 0.91440 -0.03309 0.01258 314.41757 0.00000 273.72723 0.00000 -999.00000 680.00000 -999.00000 
0.45145 0.91440 -0.03327 0.00943 315.96962 0.00000 273.71976 0.00000 -999.00000 680.00000 -999.00000 
0.44769 0.91440 -0.03344 0.00637 317.48423 0.00000 273.71252 0.00000 -999.00000 680.00000 -999.00000 
0.44392 0.91440 -0.03361 0.00342 318.96210 0.00000 273.70553 0.00000 -999.00000 680.00000 -999.00000 
0.44016 0.91440 -0.03378 0.00052 320.40585 0.00000 273.69866 0.00000 -999.00000 680.00000 -999.00000 
0.43640 0.91440 -0.03395 -0.00227 321.82536 0.00000 273.69204 0.00000 -999.00000 680.00000 -999.00000 
0.43263 0.91440 -0.03411 -0.00500 323.21291 0.00000 273.68558 0.00000 -999.00000 680.00000 -999.00000 
0.42887 0.91440 -0.03426 -0.00768 324.57766 0.00000 273.67921 0.00000 -999.00000 680.00000 -999.00000 
0.42510 0.91440 -0.03442 -0.01028 325.92902 0.00000 273.67305 0.00000 -999.00000 680.00000 -999.00000 
0.42134 0.91440 -0.03457 -0.01281 327.25346 0.00000 273.66706 0.00000 -999.00000 680.00000 -999.00000 
0.41758 0.91440 -0.03472 -0.01530 328.55171 0.00000 273.66116 0.00000 -999.00000 680.00000 -999.00000 
0.41381 0.91440 -0.03486 -0.01774 329.83592 0.00000 273.65540 0.00000 -999.00000 680.00000 -999.00000 
0.41005 0.91440 -0.03500 -0.02012 331.10652 0.00000 273.64976 0.00000 -999.00000 680.00000 -999.00000 
0.40628 0.91440 -0.03514 -0.02245 332.36346 0.00000 273.64424 0.00000 -999.00000 680.00000 -999.00000 
0.40252 0.91440 -0.03527 -0.02474 333.60687 0.00000 273.63881 0.00000 -999.00000 680.00000 -999.00000 
0.39875 0.91440 -0.03540 -0.02698 334.83689 0.00000 273.63351 0.00000 -999.00000 680.00000 -999.00000 
0.39499 0.91440 -0.03553 -0.02917 336.05072 0.00000 273.62832 0.00000 -999.00000 680.00000 -999.00000 
0.39122 0.91440 -0.03565 -0.03134 337.25214 0.00000 273.62320 0.00000 -999.00000 680.00000 -999.00000 
0.38746 0.91440 -0.03577 -0.03347 338.44865 0.00000 273.61817 0.00000 -999.00000 680.00000 -999.00000 
0.38369 0.91440 -0.03589 -0.03556 339.64209 0.00000 273.61322 0.00000 -999.00000 680.00000 -999.00000 
0.37992 0.91440 -0.03600 -0.03763 340.83513 0.00000 273.60833 0.00000 -999.00000 680.00000 -999.00000 
0.37616 0.91440 -0.03611 -0.03967 342.03168 0.00000 273.60351 0.00000 -999.00000 680.00000 -999.00000 
0.37239 0.91440 -0.03621 -0.04168 343.23285 0.00000 273.59876 0.00000 -999.00000 680.00000 -999.00000 
0.36863 0.91440 -0.03631 -0.04366 344.43624 0.00000 273.59409 0.00000 -999.00000 680.00000 -999.00000 
0.36486 0.91440 -0.03641 -0.04560 345.63822 0.00000 273.58950 0.00000 -999.00000 680.00000 -999.00000 
0.36109 0.91440 -0.03651 -0.04752 346.83647 0.00000 273.58497 0.00000 -999.00000 680.00000 -999.00000 
0.35733 0.91440 -0.03660 -0.04941 348.03261 0.00000 273.58052 0.00000 -999.00000 680.00000 -999.00000 
0.35356 0.91440 -0.03668 -0.05130 349.23616 0.00000 273.57605 0.00000 -999.00000 680.00000 -999.00000 
0.34979 0.91440 -0.03677 -0.05318 350.46223 0.00000 273.57162 0.00000 -999.00000 680.00000 -999.00000 
0.34603 0.91440 -0.03684 -0.05500 351.70324 0.00000 273.56732 0.00000 -999.00000 680.00000 -999.00000 
0.34226 0.91440 -0.03692 -0.05681 352.94386 0.00000 273.56306 0.00000 -999.00000 680.00000 -999.00000 
0.33849 0.91440 -0.03699 -0.05861 354.19026 0.00000 273.55882 0.00000 -999.00000 680.00000 -999.00000 
0.33473 0.91440 -0.03706 -0.06039 355.45275 0.00000 273.55462 0.00000 -999.00000 680.00000 -999.00000 
0.33096 0.91440 -0.03712 -0.06214 356.73327 0.00000 273.55050 0.00000 -999.00000 680.00000 -999.00000 
0.32719 0.91440 -0.03718 -0.06386 358.02590 0.00000 273.54643 0.00000 -999.00000 680.00000 -999.00000 
0.32343 0.91440 -0.03723 -0.06559 359.33541 0.00000 273.54237 0.00000 -999.00000 680.00000 -999.00000 
0.31966 0.91440 -0.03728 -0.06728 360.66964 0.00000 273.53839 0.00000 -999.00000 680.00000 -999.00000 
0.31589 0.91440 -0.03733 -0.06894 362.02197 0.00000 273.53447 0.00000 -999.00000 680.00000 -999.00000 
0.31213 0.91440 -0.03737 -0.07060 363.39443 0.00000 273.53057 0.00000 -999.00000 680.00000 -999.00000 
0.30836 0.91440 -0.03741 -0.07222 364.79036 0.00000 273.52675 0.00000 -999.00000 680.00000 -999.00000 
0.30459 0.91440 -0.03744 -0.07382 366.19726 0.00000 273.52299 0.00000 -999.00000 680.00000 -999.00000 
0.30082 0.91440 -0.03747 -0.07541 367.61319 0.00000 273.51925 0.00000 -999.00000 680.00000 -999.00000 
0.29706 0.91440 -0.03749 -0.07696 369.03947 0.00000 273.51560 0.00000 -999.00000 680.00000 -999.00000 
0.29329 0.91440 -0.03751 -0.07851 370.47283 0.00000 273.51196 0.00000 -999.00000 680.00000 -999.00000 
0.28952 0.91440 -0.03752 -0.08003 371.91522 0.00000 273.50839 0.00000 -999.00000 680.00000 -999.00000 
0.28575 0.91440 -0.03753 -0.08151 373.36268 0.00000 273.50489 0.00000 -999.00000 680.00000 -999.00000 
0.28199 0.91440 -0.03753 -0.08300 374.81906 0.00000 273.50141 0.00000 -999.00000 680.00000 -999.00000 
0.27822 0.91440 -0.03753 -0.08443 376.27712 0.00000 273.49803 0.00000 -999.00000 680.00000 -999.00000 
0.27445 0.91440 -0.03752 -0.08586 377.74030 0.00000 273.49467 0.00000 -999.00000 680.00000 -999.00000 
0.27068 0.91440 -0.03751 -0.08725 379.22556 0.00000 273.49140 0.00000 -999.00000 680.00000 -999.00000 
0.26692 0.91440 -0.03749 -0.08861 380.71888 0.00000 273.48823 0.00000 -999.00000 680.00000 -999.00000 
0.26315 0.91440 -0.03746 -0.08995 382.22174 0.00000 273.48507 0.00000 -999.00000 680.00000 -999.00000 
0.25938 0.91440 -0.03743 -0.09124 383.74041 0.00000 273.48205 0.00000 -999.00000 680.00000 -999.00000 
0.25562 0.91440 -0.03740 -0.09253 385.27223 0.00000 273.47903 0.00000 -999.00000 680.00000 -999.00000 
0.25185 0.91440 -0.03735 -0.09376 386.82454 0.00000 273.47613 0.00000 -999.00000 680.00000 -999.00000 
0.24808 0.91440 -0.03730 -0.09496 388.39091 0.00000 273.47333 0.00000 -999.00000 680.00000 -999.00000 
0.24431 0.91440 -0.03725 -0.09614 389.97853 0.00000 273.47056 0.00000 -999.00000 680.00000 -999.00000 
0.24055 0.91440 -0.03719 -0.09725 391.59430 0.00000 273.46796 0.00000 -999.00000 680.00000 -999.00000 
0.23678 0.91440 -0.03712 -0.09836 393.23455 0.00000 273.46538 0.00000 -999.00000 680.00000 -999.00000 
0.23301 0.91440 -0.03704 -0.09940 394.91027 0.00000 273.46295 0.00000 -999.00000 680.00000 -999.00000 
0.22925 0.91440 -0.03696 -0.10038 396.61385 0.00000 273.46067 0.00000 -999.00000 680.00000 -999.00000 
0.22548 0.91440 -0.03687 -0.10134 398.35337 0.00000 273.45841 0.00000 -999.00000 680.00000 -999.00000 
0.22172 0.91440 -0.03678 -0.10222 400.14684 0.00000 273.45636 0.00000 -999.00000 680.00000 -999.00000 
0.21795 0.91440 -0.03667 -0.10305 401.98829 0.00000 273.45445 0.00000 -999.00000 680.00000 -999.00000 
0.21418 0.91440 -0.03656 -0.10383 403.89216 0.00000 273.45263 0.00000 -999.00000 680.00000 -999.00000 
0.21042 0.91440 -0.03644 -0.10452 405.86431 0.00000 273.45104 0.00000 -999.00000 680.00000 -999.00000 
0.20665 0.91440 -0.03631 -0.10514 407.88401 0.00000 273.44962 0.00000 -999.00000 680.00000 -999.00000 
0.20289 0.91440 -0.03618 -0.10570 409.94811 0.00000 273.44831 0.00000 -999.00000 680.00000 -999.00000 
0.19912 0.91440 -0.03603 -0.10616 412.04964 0.00000 273.44727 0.00000 -999.00000 680.00000 -999.00000 
0.19536 0.91440 -0.03588 -0.10653 414.16114 0.00000 273.44643 0.00000 -999.00000 680.00000 -999.00000 
0.19160 0.91440 -0.03571 -0.10684 416.27891 0.00000 273.44574 0.00000 -999.00000 680.00000 -999.00000 
0.18783 0.91440 -0.03554 -0.10706 418.41514 0.00000 273.44528 0.00000 -999.00000 680.00000 -999.00000 
0.18407 0.91440 -0.03536 -0.10716 420.56246 0.00000 273.44509 0.00000 -999.00000 680.00000 -999.00000 
0.18031 0.91440 -0.03517 -0.10715 422.71331 0.00000 273.44514 0.00000 -999.00000 680.00000 -999.00000 
0.17654 0.91440 -0.03497 -0.10705 424.87861 0.00000 273.44542 0.00000 -999.00000 680.00000 -999.00000 
0.17278 0.91440 -0.03475 -0.10683 427.06883 0.00000 273.44600 0.00000 -999.00000 680.00000 -999.00000 
0.16902 0.91440 -0.03453 -0.10648 429.29026 0.00000 273.44687 0.00000 -999.00000 680.00000 -999.00000 
0.16526 0.91440 -0.03430 -0.10599 431.55308 0.00000 273.44809 0.00000 -999.00000 680.00000 -999.00000 
0.16150 0.91440 -0.03405 -0.10534 433.86588 0.00000 273.44970 0.00000 -999.00000 680.00000 -999.00000 
0.15774 0.91440 -0.03380 -0.10453 436.24736 0.00000 273.45168 0.00000 -999.00000 680.00000 -999.00000 
0.15399 0.91440 -0.03353 -0.10354 438.72074 0.00000 273.45410 0.00000 -999.00000 680.00000 -999.00000 
0.15023 0.91440 -0.03325 -0.10237 441.30313 0.00000 273.45694 0.00000 -999.00000 680.00000 -999.00000 
0.14647 0.91440 -0.03295 -0.10102 444.00367 0.00000 273.46022 0.00000 -999.00000 680.00000 -999.00000 
0.14272 0.91440 -0.03265 -0.09949 446.81550 0.00000 273.46394 0.00000 -999.00000 680.00000 -999.00000 
0.13896 0.91440 -0.03233 -0.09775 449.72104 0.00000 273.46814 0.00000 -999.00000 680.00000 -999.00000 
0.13521 0.91440 -0.03199 -0.09582 452.70393 0.00000 273.47281 0.00000 -999.00000 680.00000 -999.00000 
0.13146 0.91440 -0.03164 -0.09364 455.73606 0.00000 273.47807 0.00000 -999.00000 680.00000 -999.00000 
0.12771 0.91440 -0.03128 -0.09118 458.75225 0.00000 273.48400 0.00000 -999.00000 680.00000 -999.00000 
0.12396 0.91440 -0.03090 -0.08848 461.67447 0.00000 273.49051 0.00000 -999.00000 680.00000 -999.00000 
0.12034 0.91440 -0.03052 -0.08555 464.43661 0.00000 273.49756 0.00000 -999.00000 680.00000 -999.00000 
0.11690 0.91440 -0.03014 -0.08245 467.00650 0.00000 273.50505 0.00000 -999.00000 680.00000 -999.00000 
0.11362 0.91440 -0.02977 -0.07926 469.43910 0.00000 273.51283 0.00000 -999.00000 680.00000 -999.00000 
0.11049 0.91440 -0.02940 -0.07590 471.81451 0.00000 273.52076 0.00000 -999.00000 680.00000 -999.00000 
0.10752 0.91440 -0.02904 -0.07245 474.16543 0.00000 273.52887 0.00000 -999.00000 680.00000 -999.00000 
0.10469 0.91440 -0.02868 -0.06901 476.54538 0.00000 273.53723 0.00000 -999.00000 680.00000 -999.00000 
0.10200 0.91440 -0.02833 -0.06545 478.93499 0.00000 273.54582 0.00000 -999.00000 680.00000 -999.00000 
0.09943 0.91440 -0.02799 -0.06184 481.24091 0.00000 273.55450 0.00000 -999.00000 680.00000 -999.00000 
0.09699 0.91440 -0.02765 -0.05825 483.44646 0.00000 273.56310 0.00000 -999.00000 680.00000 -999.00000 
0.09467 0.91440 -0.02732 -0.05461 485.55208 0.00000 273.57178 0.00000 -999.00000 680.00000 -999.00000 
0.09246 0.91440 -0.02700 -0.05093 487.51117 0.00000 273.58077 0.00000 -999.00000 680.00000 -999.00000 
0.09035 0.91440 -0.02669 -0.04726 489.25268 0.00000 273.58969 0.00000 -999.00000 680.00000 -999.00000 
0.08835 0.91440 -0.02638 -0.04457 490.94073 0.00000 273.59603 0.00000 -999.00000 680.00000 -999.00000 
0.08644 0.91440 -0.02609 -0.03992 493.86079 0.00000 273.60718 0.00000 -999.00000 680.00000 -999.00000 
0.08454 0.91440 -0.02578 -0.03485 496.98622 0.00000 273.61936 0.00000 -999.00000 680.00000 -999.00000 
0.08263 0.91440 -0.02548 -0.03159 499.02578 0.00000 273.62722 0.00000 -999.00000 680.00000 -999.00000 
0.08073 0.91440 -0.02516 -0.02743 501.08530 0.00000 273.63723 0.00000 -999.00000 680.00000 -999.00000 
0.07883 0.91440 -0.02484 -0.02297 503.34140 0.00000 273.64799 0.00000 -999.00000 680.00000 -999.00000 
0.07693 0.91440 -0.02451 -0.01825 505.66492 0.00000 273.65940 0.00000 -999.00000 680.00000 -999.00000 
0.07503 0.91440 -0.02417 -0.01329 508.03954 0.00000 273.67138 0.00000 -999.00000 680.00000 -999.00000 
0.07313 0.91440 -0.02383 -0.00808 510.48366 0.00000 273.68394 0.00000 -999.00000 680.00000 -999.00000 
0.07123 0.91440 -0.02347 -0.00259 513.01169 0.00000 273.69720 0.00000 -999.00000 680.00000 -999.00000 
0.06934 0.91440 -0.02311 0.00311 515.64896 0.00000 273.71070 0.00000 -999.00000 680.00000 -999.00000 
0.06744 0.91440 -0.02275 0.00906 518.44859 0.00000 273.72479 0.00000 -999.00000 680.00000 -999.00000 
0.06555 0.91440 -0.02237 0.01531 521.43621 0.00000 273.73990 0.00000 -999.00000 680.00000 -999.00000 
0.06366 0.91440 -0.02198 0.02194 524.58470 0.00043 273.75560 0.00000 -999.00000 680.00000 -999.00000 
0.06177 0.91440 -0.02159 0.02893 527.86006 0.00351 273.77032 0.00000 -999.00000 680.00000 -999.00000 
0.05988 0.91440 -0.02119 0.03626 531.26427 0.00889 273.78425 0.00000 -999.00000 680.00000 -999.00000 
0.05800 0.91440 -0.02077 0.04400 534.78630 0.01452 273.79902 0.00000 -999.00000 680.00000 -999.00000 
0.05612 0.91440 -0.02035 0.05215 538.36927 0.02049 273.81455 0.00000 -999.00000 680.00000 -999.00000 
0.05424 0.91440 -0.01992 0.06078 541.93708 0.02681 273.83099 0.00000 -999.00000 680.00000 -999.00000 
0.05236 0.91440 -0.01947 0.06993 545.40036 0.03346 273.84844 0.00000 -999.00000 680.00000 -999.00000 
0.05049 0.91440 -0.01902 0.07961 548.68453 0.04043 273.86691 0.00000 -999.00000 680.00000 -999.00000 
0.04861 0.91440 -0.01855 0.08981 551.77856 0.04771 273.88636 0.00000 -999.00000 680.00000 -999.00000 
0.04674 0.91440 -0.01807 0.10064 554.73995 0.05539 273.90727 0.00000 -999.00000 680.00000 -999.00000 
0.04488 0.91440 -0.01758 0.11217 557.67940 0.06350 273.92951 0.00000 -999.00000 680.00000 -999.00000 
0.04302 0.91440 -0.01707 0.12438 560.76787 0.07204 273.95283 0.00000 -999.00000 680.00000 -999.00000 
0.04116 0.91440 -0.01656 0.13720 564.26255 0.08103 273.97739 0.00000 -999.00000 680.00000 -999.00000 
0.03930 0.91440 -0.01602 0.15085 568.31626 0.09050 274.00370 0.00000 -999.00000 680.00000 -999.00000 
0.03745 0.91440 -0.01547 0.16561 572.72601 0.10055 274.03228 0.00000 -999.00000 680.00000 -999.00000 
0.03561 0.91440 -0.01491 0.18159 577.07747 0.11121 274.06334 0.00000 -999.00000 680.00000 -999.00000 
0.03377 0.91440 -0.01433 0.19892 581.00109 0.12249 274.09705 0.00000 -999.00000 680.00000 -999.00000 
0.03194 0.91440 -0.01373 0.21743 584.36440 0.13441 274.13298 0.00000 -999.00000 680.00000 -999.00000 
0.03011 0.91440 -0.01311 0.23720 587.32494 0.14713 274.17119 0.00000 -999.00000 680.00000 -999.00000 
0.02829 0.91440 -0.01247 0.25820 590.22314 0.16084 274.21153 0.00000 -999.00000 680.00000 -999.00000 
0.02648 0.91440 -0.01180 0.28090 593.33747 0.17555 274.25508 0.00000 -999.00000 680.00000 -999.00000 
0.02468 0.91440 -0.01111 0.30597 596.17158 0.19121 274.30336 0.00000 -999.00000 680.00000 -999.00000 
0.02288 0.91440 -0.01040 0.33351 597.81946 0.20794 274.35617 0.00000 -999.00000 680.00000 -999.00000 
0.02110 0.91440 -0.00966 0.36341 598.53965 0.22604 274.41300 0.00000 -999.00000 680.00000 -999.00000 
0.01933 0.91440 -0.00889 0.39623 599.47119 0.24561 274.47554 0.00000 -999.00000 680.00000 -999.00000 
0.01758 0.91440 -0.00808 0.43284 600.05821 0.26674 274.54512 0.00000 -999.00000 680.00000 -999.00000 
0.01585 0.91440 -0.00724 0.47293 598.35247 0.28980 274.61981 0.00000 -999.00000 680.00000 -999.00000 
0.01413 0.91440 -0.00635 0.51757 594.21638 0.31512 274.70161 0.00000 -999.00000 680.00000 -999.00000 
0.01244 0.91440 -0.00542 0.56708 588.44165 0.34303 274.79078 0.00000 -999.00000 680.00000 -999.00000 
0.01078 0.91440 -0.00444 0.62237 580.64016 0.37429 274.88798 0.00000 -999.00000 680.00000 -999.00000 
0.00916 0.91440 -0.00339 0.68502 571.51281 0.40948 274.99562 0.00000 -999.00000 680.00000 -999.00000 
0.00759 0.91440 -0.00228 0.75578 562.92318 0.44874 275.11580 0.00000 -999.00000 680.00000 -999.00000 
0.00609 0.91440 -0.00109 0.82851 553.63322 0.49132 275.18878 0.00000 -999.00000 680.00000 -999.00000 
0.00480 0.91440 0.00006 0.89763 544.58392 0.53505 275.17517 0.00000 -999.00000 680.00000 -999.00000 
0.00370 0.91440 0.00119 0.95854 534.02731 0.57785 275.12282 0.00000 -999.00000 680.00000 -999.00000 
0.00279 0.91440 0.00228 1.00496 521.37759 0.61877 275.06251 0.00000 -999.00000 680.00000 -999.00000 
0.00203 0.91440 0.00334 1.03084 511.37652 0.65634 275.02303 0.00000 -999.00000 680.00000 -999.00000 
0.00143 0.91440 0.00437 1.02532 546.13052 0.68827 275.03626 0.00000 -999.00000 680.00000 -999.00000 
0.00097 0.91440 0.00538 0.98136 631.25375 0.71223 275.09774 0.00000 -999.00000 680.00000 -999.00000 
0.00063 0.91440 0.00637 0.89552 728.72032 0.72594 275.16611 0.00000 -999.00000 680.00000 -999.00000 
0.00042 0.91440 0.00735 0.76556 833.57264 0.72856 275.07766 0.00000 -999.00000 680.00000 -999.00000 
0.00031 0.91440 0.00834 0.58657 933.66028 0.71817 274.75137 0.00000 -999.00000 680.00000 -999.00000 
0.00032 0.91440 0.00930 0.48388 980.15476 0.70924 274.54265 0.00000 -999.00000 680.00000 -999.00000 
0.00045 0.91440 0.01025 0.11731 1075.29728 0.65502 273.76418 0.00000 -999.00000 680.00000 -999.00000 
0.00068 0.91440 0.01121 -0.14055 1126.89015 0.60549 273.32340 0.00209 -999.00000 680.00000 -999.00000 
0.00103 0.91440 0.01215 -0.39911 1157.24912 0.54484 273.15000 0.00904 -999.00000 680.00000 -999.00000 
0.00150 0.91440 0.01308 -0.64026 1167.40577 0.47599 273.15000 0.01845 -999.00000 680.00000 -999.00000 
0.00209 0.91440 0.01401 -0.84941 1155.98212 0.40299 273.15000 0.02695 -999.00000 680.00000 -999.00000 
0.00283 0.91440 0.01495 -1.01957 1127.57350 0.32803 273.15000 0.03450 -999.00000 680.00000 -999.00000 
0.00371 0.91440 0.01589 -1.15404 1092.67135 0.25219 273.15000 0.04152 -999.00000 680.00000 -999.00000 
0.00475 0.91440 0.01683 -1.25106 1056.39570 0.17692 273.15000 0.04894 -999.00000 680.00000 -999.00000 
0.00599 0.91440 0.01779 -1.31375 1022.62606 0.10430 273.15000 0.05708 -999.00000 680.00000 -999.00000 
0.00742 0.91440 0.01875 -1.35388 990.43815 0.03445 273.15000 0.06655 -999.00000 680.00000 -999.00000 
0.00905 0.91440 0.01971 -1.37349 957.46367 0.00000 273.15000 0.07462 -999.00000 680.00000 -999.00000 
0.01075 0.91440 0.02060 -1.37277 927.07995 0.00000 273.15000 0.07970 -999.00000 680.00000 -999.00000 
0.01249 0.91440 0.02141 -1.36334 901.69617 0.00000 273.15000 0.08488 -999.00000 680.00000 -999.00000 
0.01426 0.91440 0.02215 -1.34960 878.82690 0.00000 273.15000 0.09084 -999.00000 680.00000 -999.00000 
0.01605 0.91440 0.02284 -1.33062 858.09761 0.00000 273.15000 0.09771 -999.00000 680.00000 -999.00000 
0.01786 0.91440 0.02348 -1.31109 839.86238 0.00000 273.15000 0.10628 -999.00000 680.00000 -999.00000 
0.01969 0.91440 0.02407 -1.29168 823.56154 0.00000 273.15000 0.11714 -999.00000 680.00000 -999.00000 
0.02153 0.91440 0.02462 -1.27147 808.99305 0.00000 273.15000 0.13118 -999.00000 680.00000 -999.00000 
0.02338 0.91440 0.02514 -1.25220 795.48609 0.00000 273.15000 0.15011 -999.00000 680.00000 -999.00000 
0.02523 0.91440 0.02563 -1.23355 782.43646 0.00000 273.15000 0.17668 -999.00000 680.00000 -999.00000 
0.02710 0.91440 0.02609 -1.21487 770.04974 0.00000 273.15000 0.21664 -999.00000 680.00000 -999.00000 
0.02897 0.91440 0.02652 -1.19696 758.47279 0.00000 273.15000 0.28404 -999.00000 680.00000 -999.00000 
0.03085 0.91440 0.02692 -1.17996 747.46315 0.00000 273.15000 0.42319 -999.00000 680.00000 -999.00000 
0.03273 0.91440 0.02730 -1.16352 736.82528 0.00000 272.72894 0.75963 -999.00000 680.00000 -999.00000 
0.03461 0.91440 0.02767 -1.14753 726.57120 0.00000 273.64120 0.50000 -999.00000 680.00000 -999.00000 
0.03650 0.91440 0.02801 -1.13211 716.74300 0.00000 274.97896 0.00000 -999.00000 680.00000 -999.00000 
0.03840 0.91440 0.02833 -1.11744 707.23585 0.00000 274.98767 0.00000 -999.00000 680.00000 -999.00000 
0.04029 0.91440 0.02863 -1.10325 697.92729 0.00000 274.99607 0.00000 -999.00000 680.00000 -999.00000 
0.04219 0.91440 0.02892 -1.08944 688.84103 0.00000 275.00424 0.00000 -999.00000 680.00000 -999.00000 
0.04409 0.91440 0.02919 -1.07592 680.05966 0.00000 275.01222 0.00000 -999.00000 680.00000 -999.00000 
0.04599 0.91440 0.02944 -1.06292 671.59909 0.00000 275.01989 0.00000 -999.00000 680.00000 -999.00000 
0.04790 0.91440 0.02969 -1.05034 663.42396 0.00000 275.02729 0.00000 -999.00000 680.00000 -999.00000 
0.04980 0.91440 0.02991 -1.03808 655.56641 0.00000 275.03450 0.00000 -999.00000 680.00000 -999.00000 
0.05171 0.91440 0.03013 -1.02626 648.04742 0.00000 275.04144 0.00000 -999.00000 680.00000 -999.00000 
0.05362 0.91440 0.03033 -1.01476 640.85834 0.00000 275.04819 0.00000 -999.00000 680.00000 -999.00000 
0.05553 0.91440 0.03052 -1.00364 633.98535 0.00000 275.05471 0.00000 -999.00000 680.00000 -999.00000 
0.05744 0.91440 0.03070 -0.99285 627.37824 0.00000 275.06102 0.00000 -999.00000 680.00000 -999.00000 
0.05936 0.91440 0.03087 -0.98231 621.01809 0.00000 275.06719 0.00000 -999.00000 680.00000 -999.00000 
0.06127 0.91440 0.03103 -0.97202 614.90772 0.00000 275.07320 0.00000 -999.00000 680.00000 -999.00000 
0.06318 0.91440 0.03118 -0.96196 609.05067 0.00000 275.07908 0.00000 -999.00000 680.00000 -999.00000 
0.06510 0.91440 0.03132 -0.95211 603.44956 0.00000 275.08483 0.00000 -999.00000 680.00000 -999.00000 
0.06701 0.91440 0.03144 -0.94255 598.06596 0.00000 275.09040 0.00000 -999.00000 680.00000 -999.00000 
0.06893 0.91440 0.03156 -0.93320 592.85639 0.00000 275.09585 0.00000 -999.00000 680.00000 -999.00000 
0.07085 0.91440 0.03167 -0.92405 587.81465 0.00000 275.10118 0.00000 -999.00000 680.00000 -999.00000 
0.07276 0.91440 0.03178 -0.91508 582.94062 0.00000 275.10640 0.00000 -999.00000 680.00000 -999.00000 
0.07468 0.91440 0.03187 -0.90627 578.23795 0.00000 275.11153 0.00000 -999.00000 680.00000 -999.00000 
0.07660 0.91440 0.03196 -0.89769 573.68270 0.00000 275.11651 0.00000 -999.00000 680.00000 -999.00000 
0.07852 0.91440 0.03204 -0.88926 569.24239 0.00000 275.12140 0.00000 -999.00000 680.00000 -999.00000 
0.08044 0.91440 0.03211 -0.88097 564.90748 0.00000 275.12621 0.00000 -999.00000 680.00000 -999.00000 
0.08235 0.91440 0.03217 -0.87287 560.63966 0.00000 275.13090 0.00000 -999.00000 680.00000 -999.00000 
0.08427 0.91440 0.03223 -0.86483 556.43068 0.00000 275.13556 0.00000 -999.00000 680.00000 -999.00000 
0.08619 0.91440 0.03228 -0.85715 552.44297 0.00000 275.14000 0.00000 -999.00000 680.00000 -999.00000 
0.08811 0.91440 0.03232 -0.84803 548.93630 0.00000 275.14532 0.00000 -999.00000 680.00000 -999.00000 
0.09003 0.91440 0.03235 -0.84167 544.64814 0.00000 275.14895 0.00000 -999.00000 680.00000 -999.00000 
0.09189 0.91440 0.03238 -0.83577 540.32540 0.00000 275.15230 0.00000 -999.00000 680.00000 -999.00000 
0.09383 0.91440 0.03241 -0.82711 537.09773 0.00000 275.15734 0.00000 -999.00000 680.00000 -999.00000 
0.09588 0.91440 0.03242 -0.81951 533.82928 0.00000 275.16175 0.00000 -999.00000 680.00000 -999.00000 
0.09802 0.91440 0.03244 -0.81151 530.45512 0.00000 275.16638 0.00000 -999.00000 680.00000 -999.00000 
0.10028 0.91440 0.03244 -0.80325 527.01638 0.00000 275.17116 0.00000 -999.00000 680.00000 -999.00000 
0.10264 0.91440 0.03244 -0.79471 523.49507 0.00000 275.17610 0.00000 -999.00000 680.00000 -999.00000 
0.10513 0.91440 0.03243 -0.78596 519.91589 0.00000 275.18116 0.00000 -999.00000 680.00000 -999.00000 
0.10774 0.91440 0.03240 -0.77688 516.28874 0.00000 275.18641 0.00000 -999.00000 680.00000 -999.00000 
0.11048 0.91440 0.03237 -0.76757 512.57320 0.00000 275.19179 0.00000 -999.00000 680.00000 -999.00000 
0.11335 0.91440 0.03232 -0.75789 508.77383 0.00000 275.19737 0.00000 -999.00000 680.00000 -999.00000 
0.11637 0.91440 0.03226 -0.74790 504.89709 0.00000 275.20314 0.00000 -999.00000 680.00000 -999.00000 
0.11954 0.91440 0.03218 -0.73761 500.89458 0.00000 275.20906 0.00000 -999.00000 680.00000 -999.00000 
0.12287 0.91440 0.03209 -0.72695 496.72868 0.00000 275.21519 0.00000 -999.00000 680.00000 -999.00000 
0.12636 0.91440 0.03198 -0.71605 492.35123 0.00000 275.22145 0.00000 -999.00000 680.00000 -999.00000 
0.13003 0.91440 0.03184 -0.70487 487.77105 0.00000 275.22785 0.00000 -999.00000 680.00000 -999.00000 
0.13382 0.91440 0.03169 -0.69355 483.11350 0.00000 275.23432 0.00000 -999.00000 680.00000 -999.00000 
0.13760 0.91440 0.03152 -0.68236 478.53152 0.00000 275.24071 0.00000 -999.00000 680.00000 -999.00000 
0.14138 0.91440 0.03134 -0.67144 474.07477 0.00000 275.24694 0.00000 -999.00000 680.00000 -999.00000 
0.14517 0.91440 0.03114 -0.66069 469.75006 0.00000 275.25306 0.00000 -999.00000 680.00000 -999.00000 
0.14895 0.91440 0.03092 -0.65014 465.56216 0.00000 275.25906 0.00000 -999.00000 680.00000 -999.00000 
0.15273 0.91440 0.03070 -0.63983 461.47080 0.00000 275.26492 0.00000 -999.00000 680.00000 -999.00000 
0.15651 0.91440 0.03046 -0.62966 457.46573 0.00000 275.27069 0.00000 -999.00000 680.00000 -999.00000 
0.16029 0.91440 0.03021 -0.61956 453.59458 0.00000 275.27643 0.00000 -999.00000 680.00000 -999.00000 
0.16406 0.91440 0.02994 -0.60962 449.87233 0.00000 275.28206 0.00000 -999.00000 680.00000 -999.00000 
0.16784 0.91440 0.02967 -0.59986 446.25820 0.00000 275.28759 0.00000 -999.00000 680.00000 -999.00000 
0.17162 0.91440 0.02938 -0.59021 442.71335 0.00000 275.29306 0.00000 -999.00000 680.00000 -999.00000 
0.17539 0.91440 0.02908 -0.58067 439.21966 0.00000 275.29846 0.00000 -999.00000 680.00000 -999.00000 
0.17917 0.91440 0.02877 -0.57122 435.77344 0.00000 275.30380 0.00000 -999.00000 680.00000 -999.00000 