#+++++++++++++++++++++++++++++++++++++++++++++++++++++++++++++++++++++++++++++++++++++++++++++++++++++++++++++++++++++++++++++++++
#
#   IPW-3 Cut/Slice DATA SUBMITTAL FORM for Test Case NACA0012_AE3933, May 18th 2026
#
#       NOMENCLATURE:
#                  X [m]:  X-coordinate of the surface (clean for reference)
#                  Y [m]:  Y-coordinate of the surface (clean for reference)
#                  Z [m]:  Z-coordinate of the surface (clean for reference)
#                 Cp [-]:  Pressure coefficient
#            HTC [W/m2K]:  Convective Heat Transfer Coefficient (on the rough surface)
#               Beta [-]:  Collection efficiency
#                 Ts [K]:  Surface temperature
#                 FF [-]:  Freezing fraction
#                  k [m]:  Surface roughness height if variable (OPTIONAL)
#         RhoIce [kg/m3]:  Ice density (OPTIONAL)
#      HTC_CLEAN [W/m2K]:  Convective Heat Transfer Coefficient on the surface without roughness (OPTIONAL)
#
#                XXmm:  Roughness height used for the case, in mm.
#                       In the zone name, use the format KS_XXmm.
#                       For example, if k_s = 1.5 mm, use KS_1p5mm. 
#                       For Variable roughness, use KS_VAR
#
#    FLOW CONDITIONS:
#                                   AOA: 4.0 deg
#                           Mach Number: 0.3127 [-]
#       Mean aerodynamic chord (M.A.C.): 0.5334 [m]
#                       Reynolds Number: 3.8947 million (based on MAC)
#                       Freestream Temp: 270.95 [K]
#                        Reference area: 0.97548 [m2]
#               Moment Reference Center: 0.13335, 0, 0 [m] (X, Y, Z)
#
#    ICING CONDITIONS:
#                           Icing Time: 420 [s]
#                                  LWC: 0.55 [g/m3]
#                                  MVD: 20 [μm]
#
#              NOTES: 1. Please use at least 5 decimal places in the numerical values
#                     2. If data are NOT provided, please fill data fields with a numerical value of "-999" 
#
#++++++++++++++++++++++++++++++++++++++++++++++++++++++++++++++++++++++++++++++++++++++++++++++++++++++++++++++++++++

                                                    <- Optional ->                 
VARIABLES = "X" "Y" "Z" "Cp" "HTC" "Beta" "Ts" "FF" "k" "RhoIce" "HTC_CLEAN"

ZONE T="SLICE_Y_0p9144_BINS01_KS_0p5334mm_CUTDATA"
0.53243 0.91440 -0.02791 0.07925 157.33245 0.00000 270.38860 0.00000 -999.00000 880.00000 -999.00000 
0.53242 0.91440 -0.02802 0.07912 156.67128 0.00000 270.38815 0.00000 -999.00000 880.00000 -999.00000 
0.53241 0.91440 -0.02813 0.07663 144.14428 0.00000 270.37902 0.00000 -999.00000 880.00000 -999.00000 
0.53240 0.91440 -0.02824 0.06945 125.39599 0.00000 270.36096 0.00000 -999.00000 880.00000 -999.00000 
0.53239 0.91440 -0.02835 0.06020 98.51591 0.00000 270.32377 0.00000 -999.00000 880.00000 -999.00000 
0.53239 0.91440 -0.02846 -0.00235 122.37427 0.00000 270.30575 0.00000 -999.00000 880.00000 -999.00000 
0.53238 0.91440 -0.02858 -0.06049 163.36562 0.00000 270.31395 0.00000 -999.00000 880.00000 -999.00000 
0.53202 0.91440 -0.02860 0.14828 289.41437 0.00000 270.46640 0.00000 -999.00000 880.00000 -999.00000 
0.53144 0.91440 -0.02864 0.10645 283.84559 0.00000 270.44211 0.00000 -999.00000 880.00000 -999.00000 
0.53052 0.91440 -0.02871 0.10997 270.55615 0.00000 270.44178 0.00000 -999.00000 880.00000 -999.00000 
0.52905 0.91440 -0.02881 0.10583 267.94963 0.00000 270.43897 0.00000 -999.00000 880.00000 -999.00000 
0.52669 0.91440 -0.02897 0.10040 268.33810 0.00000 270.43602 0.00000 -999.00000 880.00000 -999.00000 
0.52292 0.91440 -0.02922 0.09387 271.03881 0.00000 270.43288 0.00000 -999.00000 880.00000 -999.00000 
0.51916 0.91440 -0.02947 0.08807 274.58812 0.00000 270.43028 0.00000 -999.00000 880.00000 -999.00000 
0.51540 0.91440 -0.02972 0.08190 278.09567 0.00000 270.42747 0.00000 -999.00000 880.00000 -999.00000 
0.51164 0.91440 -0.02996 0.07603 281.36867 0.00000 270.42475 0.00000 -999.00000 880.00000 -999.00000 
0.50788 0.91440 -0.03019 0.07039 284.38499 0.00000 270.42211 0.00000 -999.00000 880.00000 -999.00000 
0.50412 0.91440 -0.03042 0.06497 287.18454 0.00000 270.41955 0.00000 -999.00000 880.00000 -999.00000 
0.50036 0.91440 -0.03065 0.05980 289.82274 0.00000 270.41709 0.00000 -999.00000 880.00000 -999.00000 
0.49660 0.91440 -0.03088 0.05489 292.31904 0.00000 270.41473 0.00000 -999.00000 880.00000 -999.00000 
0.49284 0.91440 -0.03110 0.05017 294.68414 0.00000 270.41247 0.00000 -999.00000 880.00000 -999.00000 
0.48907 0.91440 -0.03131 0.04567 296.93332 0.00000 270.41029 0.00000 -999.00000 880.00000 -999.00000 
0.48531 0.91440 -0.03152 0.04134 299.07653 0.00000 270.40820 0.00000 -999.00000 880.00000 -999.00000 
0.48155 0.91440 -0.03173 0.03719 301.12636 0.00000 270.40618 0.00000 -999.00000 880.00000 -999.00000 
0.47779 0.91440 -0.03194 0.03320 303.08987 0.00000 270.40423 0.00000 -999.00000 880.00000 -999.00000 
0.47403 0.91440 -0.03214 0.02936 304.97428 0.00000 270.40235 0.00000 -999.00000 880.00000 -999.00000 
0.47027 0.91440 -0.03233 0.02565 306.78796 0.00000 270.40054 0.00000 -999.00000 880.00000 -999.00000 
0.46650 0.91440 -0.03253 0.02207 308.54008 0.00000 270.39878 0.00000 -999.00000 880.00000 -999.00000 
0.46274 0.91440 -0.03272 0.01863 310.23006 0.00000 270.39709 0.00000 -999.00000 880.00000 -999.00000 
0.45898 0.91440 -0.03290 0.01527 311.86243 0.00000 270.39543 0.00000 -999.00000 880.00000 -999.00000 
0.45521 0.91440 -0.03309 0.01205 313.45183 0.00000 270.39384 0.00000 -999.00000 880.00000 -999.00000 
0.45145 0.91440 -0.03327 0.00891 314.99642 0.00000 270.39229 0.00000 -999.00000 880.00000 -999.00000 
0.44769 0.91440 -0.03344 0.00586 316.50338 0.00000 270.39078 0.00000 -999.00000 880.00000 -999.00000 
0.44392 0.91440 -0.03361 0.00292 317.97403 0.00000 270.38933 0.00000 -999.00000 880.00000 -999.00000 
0.44016 0.91440 -0.03378 0.00003 319.41194 0.00000 270.38790 0.00000 -999.00000 880.00000 -999.00000 
0.43640 0.91440 -0.03395 -0.00276 320.82745 0.00000 270.38652 0.00000 -999.00000 880.00000 -999.00000 
0.43263 0.91440 -0.03411 -0.00547 322.21250 0.00000 270.38517 0.00000 -999.00000 880.00000 -999.00000 
0.42887 0.91440 -0.03426 -0.00815 323.57576 0.00000 270.38384 0.00000 -999.00000 880.00000 -999.00000 
0.42510 0.91440 -0.03442 -0.01074 324.92619 0.00000 270.38256 0.00000 -999.00000 880.00000 -999.00000 
0.42134 0.91440 -0.03457 -0.01326 326.24997 0.00000 270.38131 0.00000 -999.00000 880.00000 -999.00000 
0.41758 0.91440 -0.03472 -0.01575 327.54783 0.00000 270.38008 0.00000 -999.00000 880.00000 -999.00000 
0.41381 0.91440 -0.03486 -0.01818 328.83191 0.00000 270.37887 0.00000 -999.00000 880.00000 -999.00000 
0.41005 0.91440 -0.03500 -0.02055 330.10262 0.00000 270.37769 0.00000 -999.00000 880.00000 -999.00000 
0.40628 0.91440 -0.03514 -0.02288 331.35990 0.00000 270.37654 0.00000 -999.00000 880.00000 -999.00000 
0.40252 0.91440 -0.03527 -0.02517 332.60393 0.00000 270.37540 0.00000 -999.00000 880.00000 -999.00000 
0.39875 0.91440 -0.03540 -0.02740 333.83479 0.00000 270.37430 0.00000 -999.00000 880.00000 -999.00000 
0.39499 0.91440 -0.03553 -0.02959 335.04949 0.00000 270.37321 0.00000 -999.00000 880.00000 -999.00000 
0.39122 0.91440 -0.03565 -0.03175 336.25152 0.00000 270.37214 0.00000 -999.00000 880.00000 -999.00000 
0.38746 0.91440 -0.03577 -0.03387 337.44803 0.00000 270.37108 0.00000 -999.00000 880.00000 -999.00000 
0.38369 0.91440 -0.03589 -0.03596 338.64037 0.00000 270.37005 0.00000 -999.00000 880.00000 -999.00000 
0.37992 0.91440 -0.03600 -0.03803 339.83106 0.00000 270.36903 0.00000 -999.00000 880.00000 -999.00000 
0.37616 0.91440 -0.03611 -0.04006 341.02499 0.00000 270.36802 0.00000 -999.00000 880.00000 -999.00000 
0.37239 0.91440 -0.03621 -0.04207 342.22427 0.00000 270.36702 0.00000 -999.00000 880.00000 -999.00000 
0.36863 0.91440 -0.03631 -0.04404 343.42637 0.00000 270.36605 0.00000 -999.00000 880.00000 -999.00000 
0.36486 0.91440 -0.03641 -0.04598 344.62680 0.00000 270.36509 0.00000 -999.00000 880.00000 -999.00000 
0.36109 0.91440 -0.03651 -0.04790 345.82268 0.00000 270.36415 0.00000 -999.00000 880.00000 -999.00000 
0.35733 0.91440 -0.03660 -0.04978 347.01531 0.00000 270.36322 0.00000 -999.00000 880.00000 -999.00000 
0.35356 0.91440 -0.03668 -0.05167 348.21403 0.00000 270.36229 0.00000 -999.00000 880.00000 -999.00000 
0.34979 0.91440 -0.03677 -0.05354 349.43485 0.00000 270.36137 0.00000 -999.00000 880.00000 -999.00000 
0.34603 0.91440 -0.03684 -0.05537 350.67107 0.00000 270.36048 0.00000 -999.00000 880.00000 -999.00000 
0.34226 0.91440 -0.03692 -0.05717 351.90692 0.00000 270.35959 0.00000 -999.00000 880.00000 -999.00000 
0.33849 0.91440 -0.03699 -0.05896 353.14745 0.00000 270.35872 0.00000 -999.00000 880.00000 -999.00000 
0.33473 0.91440 -0.03706 -0.06074 354.40253 0.00000 270.35785 0.00000 -999.00000 880.00000 -999.00000 
0.33096 0.91440 -0.03712 -0.06249 355.67447 0.00000 270.35700 0.00000 -999.00000 880.00000 -999.00000 
0.32719 0.91440 -0.03718 -0.06421 356.95755 0.00000 270.35616 0.00000 -999.00000 880.00000 -999.00000 
0.32343 0.91440 -0.03723 -0.06593 358.25604 0.00000 270.35533 0.00000 -999.00000 880.00000 -999.00000 
0.31966 0.91440 -0.03728 -0.06762 359.57743 0.00000 270.35451 0.00000 -999.00000 880.00000 -999.00000 
0.31589 0.91440 -0.03733 -0.06928 360.91575 0.00000 270.35371 0.00000 -999.00000 880.00000 -999.00000 
0.31213 0.91440 -0.03737 -0.07094 362.27499 0.00000 270.35292 0.00000 -999.00000 880.00000 -999.00000 
0.30836 0.91440 -0.03741 -0.07257 363.66150 0.00000 270.35214 0.00000 -999.00000 880.00000 -999.00000 
0.30459 0.91440 -0.03744 -0.07417 365.06560 0.00000 270.35138 0.00000 -999.00000 880.00000 -999.00000 
0.30082 0.91440 -0.03747 -0.07575 366.48556 0.00000 270.35063 0.00000 -999.00000 880.00000 -999.00000 
0.29706 0.91440 -0.03749 -0.07730 367.91954 0.00000 270.34989 0.00000 -999.00000 880.00000 -999.00000 
0.29329 0.91440 -0.03751 -0.07885 369.36161 0.00000 270.34916 0.00000 -999.00000 880.00000 -999.00000 
0.28952 0.91440 -0.03752 -0.08036 370.81334 0.00000 270.34845 0.00000 -999.00000 880.00000 -999.00000 
0.28575 0.91440 -0.03753 -0.08185 372.27065 0.00000 270.34775 0.00000 -999.00000 880.00000 -999.00000 
0.28199 0.91440 -0.03753 -0.08333 373.73715 0.00000 270.34706 0.00000 -999.00000 880.00000 -999.00000 
0.27822 0.91440 -0.03753 -0.08477 375.20517 0.00000 270.34639 0.00000 -999.00000 880.00000 -999.00000 
0.27445 0.91440 -0.03752 -0.08620 376.67797 0.00000 270.34572 0.00000 -999.00000 880.00000 -999.00000 
0.27068 0.91440 -0.03751 -0.08759 378.17248 0.00000 270.34507 0.00000 -999.00000 880.00000 -999.00000 
0.26692 0.91440 -0.03749 -0.08894 379.67459 0.00000 270.34445 0.00000 -999.00000 880.00000 -999.00000 
0.26315 0.91440 -0.03746 -0.09028 381.18550 0.00000 270.34383 0.00000 -999.00000 880.00000 -999.00000 
0.25938 0.91440 -0.03743 -0.09157 382.71106 0.00000 270.34324 0.00000 -999.00000 880.00000 -999.00000 
0.25562 0.91440 -0.03740 -0.09285 384.24832 0.00000 270.34266 0.00000 -999.00000 880.00000 -999.00000 
0.25185 0.91440 -0.03735 -0.09408 385.80454 0.00000 270.34210 0.00000 -999.00000 880.00000 -999.00000 
0.24808 0.91440 -0.03730 -0.09528 387.37383 0.00000 270.34157 0.00000 -999.00000 880.00000 -999.00000 
0.24431 0.91440 -0.03725 -0.09646 388.96385 0.00000 270.34104 0.00000 -999.00000 880.00000 -999.00000 
0.24055 0.91440 -0.03719 -0.09756 390.58087 0.00000 270.34056 0.00000 -999.00000 880.00000 -999.00000 
0.23678 0.91440 -0.03712 -0.09866 392.22058 0.00000 270.34008 0.00000 -999.00000 880.00000 -999.00000 
0.23301 0.91440 -0.03704 -0.09970 393.89364 0.00000 270.33964 0.00000 -999.00000 880.00000 -999.00000 
0.22925 0.91440 -0.03696 -0.10068 395.59160 0.00000 270.33923 0.00000 -999.00000 880.00000 -999.00000 
0.22548 0.91440 -0.03687 -0.10164 397.32112 0.00000 270.33883 0.00000 -999.00000 880.00000 -999.00000 
0.22172 0.91440 -0.03678 -0.10252 399.09840 0.00000 270.33849 0.00000 -999.00000 880.00000 -999.00000 
0.21795 0.91440 -0.03667 -0.10335 400.91662 0.00000 270.33817 0.00000 -999.00000 880.00000 -999.00000 
0.21418 0.91440 -0.03656 -0.10413 402.79248 0.00000 270.33788 0.00000 -999.00000 880.00000 -999.00000 
0.21042 0.91440 -0.03644 -0.10482 404.73811 0.00000 270.33765 0.00000 -999.00000 880.00000 -999.00000 
0.20665 0.91440 -0.03631 -0.10544 406.73962 0.00000 270.33747 0.00000 -999.00000 880.00000 -999.00000 
0.20289 0.91440 -0.03618 -0.10601 408.79699 0.00000 270.33731 0.00000 -999.00000 880.00000 -999.00000 
0.19912 0.91440 -0.03603 -0.10647 410.90401 0.00000 270.33722 0.00000 -999.00000 880.00000 -999.00000 
0.19536 0.91440 -0.03588 -0.10684 413.03229 0.00000 270.33718 0.00000 -999.00000 880.00000 -999.00000 
0.19160 0.91440 -0.03571 -0.10715 415.17333 0.00000 270.33717 0.00000 -999.00000 880.00000 -999.00000 
0.18783 0.91440 -0.03554 -0.10736 417.33354 0.00000 270.33722 0.00000 -999.00000 880.00000 -999.00000 
0.18407 0.91440 -0.03536 -0.10745 419.50320 0.00000 270.33733 0.00000 -999.00000 880.00000 -999.00000 
0.18031 0.91440 -0.03517 -0.10745 421.67492 0.00000 270.33750 0.00000 -999.00000 880.00000 -999.00000 
0.17654 0.91440 -0.03497 -0.10735 423.86005 0.00000 270.33772 0.00000 -999.00000 880.00000 -999.00000 
0.17278 0.91440 -0.03475 -0.10713 426.06999 0.00000 270.33801 0.00000 -999.00000 880.00000 -999.00000 
0.16902 0.91440 -0.03453 -0.10679 428.31025 0.00000 270.33837 0.00000 -999.00000 880.00000 -999.00000 
0.16526 0.91440 -0.03430 -0.10629 430.58646 0.00000 270.33881 0.00000 -999.00000 880.00000 -999.00000 
0.16150 0.91440 -0.03405 -0.10564 432.90329 0.00000 270.33935 0.00000 -999.00000 880.00000 -999.00000 
0.15774 0.91440 -0.03380 -0.10484 435.27840 0.00000 270.33998 0.00000 -999.00000 880.00000 -999.00000 
0.15399 0.91440 -0.03353 -0.10385 437.73521 0.00000 270.34071 0.00000 -999.00000 880.00000 -999.00000 
0.15023 0.91440 -0.03325 -0.10268 440.29318 0.00000 270.34155 0.00000 -999.00000 880.00000 -999.00000 
0.14647 0.91440 -0.03295 -0.10133 442.96693 0.00000 270.34250 0.00000 -999.00000 880.00000 -999.00000 
0.14272 0.91440 -0.03265 -0.09979 445.75614 0.00000 270.34356 0.00000 -999.00000 880.00000 -999.00000 
0.13896 0.91440 -0.03233 -0.09805 448.64748 0.00000 270.34474 0.00000 -999.00000 880.00000 -999.00000 
0.13521 0.91440 -0.03199 -0.09611 451.62665 0.00000 270.34604 0.00000 -999.00000 880.00000 -999.00000 
0.13146 0.91440 -0.03164 -0.09393 454.67119 0.00000 270.34747 0.00000 -999.00000 880.00000 -999.00000 
0.12771 0.91440 -0.03128 -0.09147 457.72236 0.00000 270.34906 0.00000 -999.00000 880.00000 -999.00000 
0.12396 0.91440 -0.03090 -0.08877 460.69515 0.00000 270.35078 0.00000 -999.00000 880.00000 -999.00000 
0.12034 0.91440 -0.03052 -0.08585 463.50563 0.00000 270.35261 0.00000 -999.00000 880.00000 -999.00000 
0.11690 0.91440 -0.03014 -0.08276 466.11077 0.00000 270.35452 0.00000 -999.00000 880.00000 -999.00000 
0.11362 0.91440 -0.02977 -0.07958 468.56122 0.00000 270.35648 0.00000 -999.00000 880.00000 -999.00000 
0.11049 0.91440 -0.02940 -0.07622 470.93410 0.00000 270.35852 0.00000 -999.00000 880.00000 -999.00000 
0.10752 0.91440 -0.02904 -0.07277 473.26187 0.00000 270.36061 0.00000 -999.00000 880.00000 -999.00000 
0.10469 0.91440 -0.02868 -0.06931 475.60454 0.00000 270.36271 0.00000 -999.00000 880.00000 -999.00000 
0.10200 0.91440 -0.02833 -0.06576 477.96305 0.00000 270.36486 0.00000 -999.00000 880.00000 -999.00000 
0.09943 0.91440 -0.02799 -0.06215 480.26082 0.00000 270.36704 0.00000 -999.00000 880.00000 -999.00000 
0.09699 0.91440 -0.02765 -0.05856 482.47592 0.00000 270.36920 0.00000 -999.00000 880.00000 -999.00000 
0.09467 0.91440 -0.02732 -0.05492 484.59645 0.00000 270.37138 0.00000 -999.00000 880.00000 -999.00000 
0.09246 0.91440 -0.02700 -0.05125 486.56897 0.00000 270.37357 0.00000 -999.00000 880.00000 -999.00000 
0.09035 0.91440 -0.02669 -0.04759 488.31700 0.00000 270.37574 0.00000 -999.00000 880.00000 -999.00000 
0.08835 0.91440 -0.02638 -0.04490 490.01078 0.00000 270.37735 0.00000 -999.00000 880.00000 -999.00000 
0.08644 0.91440 -0.02609 -0.04023 492.93962 0.00000 270.38015 0.00000 -999.00000 880.00000 -999.00000 
0.08454 0.91440 -0.02578 -0.03518 496.07081 0.00000 270.38318 0.00000 -999.00000 880.00000 -999.00000 
0.08263 0.91440 -0.02548 -0.03194 498.12866 0.00000 270.38513 0.00000 -999.00000 880.00000 -999.00000 
0.08073 0.91440 -0.02516 -0.02778 500.22462 0.00000 270.38759 0.00000 -999.00000 880.00000 -999.00000 
0.07883 0.91440 -0.02484 -0.02332 502.51750 0.00000 270.39023 0.00000 -999.00000 880.00000 -999.00000 
0.07693 0.91440 -0.02451 -0.01860 504.86829 0.00000 270.39303 0.00000 -999.00000 880.00000 -999.00000 
0.07503 0.91440 -0.02417 -0.01364 507.25608 0.00000 270.39595 0.00000 -999.00000 880.00000 -999.00000 
0.07313 0.91440 -0.02383 -0.00845 509.69850 0.00000 270.39901 0.00000 -999.00000 880.00000 -999.00000 
0.07123 0.91440 -0.02347 -0.00296 512.21495 0.00000 270.40224 0.00000 -999.00000 880.00000 -999.00000 
0.06934 0.91440 -0.02311 0.00278 514.82743 0.00000 270.40561 0.00000 -999.00000 880.00000 -999.00000 
0.06744 0.91440 -0.02275 0.00875 517.58040 0.00000 270.40912 0.00000 -999.00000 880.00000 -999.00000 
0.06555 0.91440 -0.02237 0.01499 520.52302 0.00000 270.41279 0.00000 -999.00000 880.00000 -999.00000 
0.06366 0.91440 -0.02198 0.02160 523.65577 0.00075 270.18849 0.50000 -999.00000 880.00000 -999.00000 
0.06177 0.91440 -0.02159 0.02858 526.93301 0.00407 269.33093 1.00000 -999.00000 880.00000 -999.00000 
0.05988 0.91440 -0.02119 0.03590 530.34612 0.00937 268.75717 1.00000 -999.00000 880.00000 -999.00000 
0.05800 0.91440 -0.02077 0.04363 533.90305 0.01500 269.33884 1.00000 -999.00000 880.00000 -999.00000 
0.05612 0.91440 -0.02035 0.05179 537.56583 0.02098 271.50642 0.90415 -999.00000 880.00000 -999.00000 
0.05424 0.91440 -0.01992 0.06042 541.25767 0.02730 273.15000 0.63158 -999.00000 880.00000 -999.00000 
0.05236 0.91440 -0.01947 0.06956 544.88330 0.03394 273.15000 0.38742 -999.00000 880.00000 -999.00000 
0.05049 0.91440 -0.01902 0.07924 548.35520 0.04091 273.15000 0.28443 -999.00000 880.00000 -999.00000 
0.04861 0.91440 -0.01855 0.08945 551.62409 0.04819 273.15000 0.22699 -999.00000 880.00000 -999.00000 
0.04674 0.91440 -0.01807 0.10027 554.70990 0.05587 273.15000 0.19028 -999.00000 880.00000 -999.00000 
0.04488 0.91440 -0.01758 0.11178 557.70951 0.06397 273.15000 0.16485 -999.00000 880.00000 -999.00000 
0.04302 0.91440 -0.01707 0.12407 560.76398 0.07251 273.15000 0.14627 -999.00000 880.00000 -999.00000 
0.04116 0.91440 -0.01656 0.13693 564.12107 0.08150 273.15000 0.13223 -999.00000 880.00000 -999.00000 
0.03930 0.91440 -0.01602 0.15049 568.07231 0.09098 273.15000 0.12137 -999.00000 880.00000 -999.00000 
0.03745 0.91440 -0.01547 0.16518 572.55112 0.10104 273.15000 0.11279 -999.00000 880.00000 -999.00000 
0.03561 0.91440 -0.01491 0.18110 577.12161 0.11170 273.15000 0.10584 -999.00000 880.00000 -999.00000 
0.03377 0.91440 -0.01433 0.19842 581.30352 0.12296 273.15000 0.10009 -999.00000 880.00000 -999.00000 
0.03194 0.91440 -0.01373 0.21697 584.85717 0.13487 273.15000 0.09527 -999.00000 880.00000 -999.00000 
0.03011 0.91440 -0.01311 0.23682 587.93215 0.14759 273.15000 0.09125 -999.00000 880.00000 -999.00000 
0.02829 0.91440 -0.01247 0.25793 590.88807 0.16130 273.15000 0.08796 -999.00000 880.00000 -999.00000 
0.02648 0.91440 -0.01180 0.28053 594.13437 0.17600 273.15000 0.08536 -999.00000 880.00000 -999.00000 
0.02468 0.91440 -0.01111 0.30550 597.38282 0.19164 273.15000 0.08331 -999.00000 880.00000 -999.00000 
0.02288 0.91440 -0.01040 0.33301 599.56505 0.20837 273.15000 0.08165 -999.00000 880.00000 -999.00000 
0.02110 0.91440 -0.00966 0.36298 600.53838 0.22647 273.15000 0.08037 -999.00000 880.00000 -999.00000 
0.01933 0.91440 -0.00889 0.39582 601.41701 0.24603 273.15000 0.07962 -999.00000 880.00000 -999.00000 
0.01758 0.91440 -0.00808 0.43228 602.22766 0.26715 273.15000 0.07940 -999.00000 880.00000 -999.00000 
0.01585 0.91440 -0.00724 0.47241 601.16905 0.29020 273.15000 0.07961 -999.00000 880.00000 -999.00000 
0.01413 0.91440 -0.00635 0.51710 597.57846 0.31552 273.15000 0.08026 -999.00000 880.00000 -999.00000 
0.01244 0.91440 -0.00542 0.56663 592.23421 0.34343 273.15000 0.08167 -999.00000 880.00000 -999.00000 
0.01078 0.91440 -0.00444 0.62202 585.30315 0.37468 273.15000 0.08412 -999.00000 880.00000 -999.00000 
0.00916 0.91440 -0.00339 0.68466 576.84675 0.40988 273.15000 0.08812 -999.00000 880.00000 -999.00000 
0.00759 0.91440 -0.00228 0.75536 567.80436 0.44914 273.15000 0.09428 -999.00000 880.00000 -999.00000 
0.00609 0.91440 -0.00109 0.82812 557.23127 0.49173 273.15000 0.10029 -999.00000 880.00000 -999.00000 
0.00480 0.91440 0.00006 0.89730 546.16285 0.53547 273.15000 0.10868 -999.00000 880.00000 -999.00000 
0.00370 0.91440 0.00119 0.95829 533.23232 0.57828 273.15000 0.12659 -999.00000 880.00000 -999.00000 
0.00279 0.91440 0.00228 1.00480 518.12964 0.61923 273.15000 0.17038 -999.00000 880.00000 -999.00000 
0.00203 0.91440 0.00334 1.03082 505.48046 0.65684 273.15000 0.21805 -999.00000 880.00000 -999.00000 
0.00143 0.91440 0.00437 1.02553 540.37413 0.68880 273.15000 0.19963 -999.00000 880.00000 -999.00000 
0.00097 0.91440 0.00538 0.98190 628.47992 0.71281 273.15000 0.14478 -999.00000 880.00000 -999.00000 
0.00063 0.91440 0.00637 0.89644 729.04078 0.72658 273.15000 0.11734 -999.00000 880.00000 -999.00000 
0.00042 0.91440 0.00735 0.76693 836.92710 0.72926 273.15000 0.10994 -999.00000 880.00000 -999.00000 
0.00031 0.91440 0.00834 0.58845 939.46696 0.71895 273.15000 0.11141 -999.00000 880.00000 -999.00000 
0.00032 0.91440 0.00930 0.48602 986.96964 0.71006 273.15000 0.11353 -999.00000 880.00000 -999.00000 
0.00045 0.91440 0.01025 0.12014 1082.57224 0.65596 273.15000 0.13095 -999.00000 880.00000 -999.00000 
0.00068 0.91440 0.01121 -0.13730 1134.77922 0.60652 273.15000 0.14948 -999.00000 880.00000 -999.00000 
0.00103 0.91440 0.01215 -0.39539 1165.37971 0.54597 273.15000 0.17298 -999.00000 880.00000 -999.00000 
0.00150 0.91440 0.01308 -0.63618 1174.87979 0.47722 273.15000 0.20659 -999.00000 880.00000 -999.00000 
0.00209 0.91440 0.01401 -0.84527 1161.64399 0.40432 273.15000 0.25575 -999.00000 880.00000 -999.00000 
0.00283 0.91440 0.01495 -1.01545 1131.58628 0.32948 273.15000 0.33171 -999.00000 880.00000 -999.00000 
0.00371 0.91440 0.01589 -1.14995 1095.43910 0.25377 273.15000 0.47500 -999.00000 880.00000 -999.00000 
0.00475 0.91440 0.01683 -1.24715 1058.09551 0.17866 272.25236 0.78561 -999.00000 880.00000 -999.00000 
0.00599 0.91440 0.01779 -1.31031 1023.13999 0.10618 268.81901 1.00000 -999.00000 880.00000 -999.00000 
0.00742 0.91440 0.01875 -1.35063 990.06761 0.03628 267.80927 1.00000 -999.00000 880.00000 -999.00000 
0.00905 0.91440 0.01971 -1.37059 956.55092 0.00086 269.47311 0.50000 -999.00000 880.00000 -999.00000 
0.01075 0.91440 0.02060 -1.36967 926.05950 0.00000 269.61384 0.00000 -999.00000 880.00000 -999.00000 
0.01249 0.91440 0.02141 -1.36018 900.93273 0.00000 269.61925 0.00000 -999.00000 880.00000 -999.00000 
0.01426 0.91440 0.02215 -1.34685 878.04864 0.00000 269.62701 0.00000 -999.00000 880.00000 -999.00000 
0.01605 0.91440 0.02284 -1.32792 857.07358 0.00000 269.63815 0.00000 -999.00000 880.00000 -999.00000 
0.01786 0.91440 0.02348 -1.30869 838.57699 0.00000 269.64949 0.00000 -999.00000 880.00000 -999.00000 
0.01969 0.91440 0.02407 -1.28943 822.14177 0.00000 269.66085 0.00000 -999.00000 880.00000 -999.00000 
0.02153 0.91440 0.02462 -1.26939 807.41939 0.00000 269.67269 0.00000 -999.00000 880.00000 -999.00000 
0.02338 0.91440 0.02514 -1.25019 793.73087 0.00000 269.68402 0.00000 -999.00000 880.00000 -999.00000 
0.02523 0.91440 0.02563 -1.23158 780.56137 0.00000 269.69498 0.00000 -999.00000 880.00000 -999.00000 
0.02710 0.91440 0.02609 -1.21302 768.12536 0.00000 269.70591 0.00000 -999.00000 880.00000 -999.00000 
0.02897 0.91440 0.02652 -1.19524 756.52449 0.00000 269.71636 0.00000 -999.00000 880.00000 -999.00000 
0.03085 0.91440 0.02692 -1.17837 745.48395 0.00000 269.72626 0.00000 -999.00000 880.00000 -999.00000 
0.03273 0.91440 0.02730 -1.16199 734.81296 0.00000 269.73586 0.00000 -999.00000 880.00000 -999.00000 
0.03461 0.91440 0.02767 -1.14598 724.57346 0.00000 269.74522 0.00000 -999.00000 880.00000 -999.00000 
0.03650 0.91440 0.02801 -1.13058 714.81209 0.00000 269.75423 0.00000 -999.00000 880.00000 -999.00000 
0.03840 0.91440 0.02833 -1.11594 705.37540 0.00000 269.76276 0.00000 -999.00000 880.00000 -999.00000 
0.04029 0.91440 0.02863 -1.10180 696.10845 0.00000 269.77099 0.00000 -999.00000 880.00000 -999.00000 
0.04219 0.91440 0.02892 -1.08800 687.03685 0.00000 269.77901 0.00000 -999.00000 880.00000 -999.00000 
0.04409 0.91440 0.02919 -1.07451 678.25837 0.00000 269.78684 0.00000 -999.00000 880.00000 -999.00000 
0.04599 0.91440 0.02944 -1.06152 669.80885 0.00000 269.79436 0.00000 -999.00000 880.00000 -999.00000 
0.04790 0.91440 0.02969 -1.04897 661.66087 0.00000 269.80162 0.00000 -999.00000 880.00000 -999.00000 
0.04980 0.91440 0.02991 -1.03678 653.83126 0.00000 269.80867 0.00000 -999.00000 880.00000 -999.00000 
0.05171 0.91440 0.03013 -1.02500 646.32942 0.00000 269.81547 0.00000 -999.00000 880.00000 -999.00000 
0.05362 0.91440 0.03033 -1.01354 639.14898 0.00000 269.82208 0.00000 -999.00000 880.00000 -999.00000 
0.05553 0.91440 0.03052 -1.00243 632.28446 0.00000 269.82847 0.00000 -999.00000 880.00000 -999.00000 
0.05744 0.91440 0.03070 -0.99166 625.69294 0.00000 269.83467 0.00000 -999.00000 880.00000 -999.00000 
0.05936 0.91440 0.03087 -0.98113 619.35369 0.00000 269.84073 0.00000 -999.00000 880.00000 -999.00000 
0.06127 0.91440 0.03103 -0.97085 613.26447 0.00000 269.84663 0.00000 -999.00000 880.00000 -999.00000 
0.06318 0.91440 0.03118 -0.96082 607.42665 0.00000 269.85239 0.00000 -999.00000 880.00000 -999.00000 
0.06510 0.91440 0.03132 -0.95099 601.84229 0.00000 269.85803 0.00000 -999.00000 880.00000 -999.00000 
0.06701 0.91440 0.03144 -0.94146 596.47247 0.00000 269.86349 0.00000 -999.00000 880.00000 -999.00000 
0.06893 0.91440 0.03156 -0.93214 591.27315 0.00000 269.86883 0.00000 -999.00000 880.00000 -999.00000 
0.07085 0.91440 0.03167 -0.92302 586.23685 0.00000 269.87405 0.00000 -999.00000 880.00000 -999.00000 
0.07276 0.91440 0.03178 -0.91408 581.36226 0.00000 269.87916 0.00000 -999.00000 880.00000 -999.00000 
0.07468 0.91440 0.03187 -0.90530 576.65416 0.00000 269.88418 0.00000 -999.00000 880.00000 -999.00000 
0.07660 0.91440 0.03196 -0.89674 572.09089 0.00000 269.88907 0.00000 -999.00000 880.00000 -999.00000 
0.07852 0.91440 0.03204 -0.88834 567.64156 0.00000 269.89386 0.00000 -999.00000 880.00000 -999.00000 
0.08044 0.91440 0.03211 -0.88006 563.29709 0.00000 269.89858 0.00000 -999.00000 880.00000 -999.00000 
0.08235 0.91440 0.03217 -0.87198 559.01815 0.00000 269.90318 0.00000 -999.00000 880.00000 -999.00000 
0.08427 0.91440 0.03223 -0.86396 554.79570 0.00000 269.90775 0.00000 -999.00000 880.00000 -999.00000 
0.08619 0.91440 0.03228 -0.85630 550.79701 0.00000 269.91210 0.00000 -999.00000 880.00000 -999.00000 
0.08811 0.91440 0.03232 -0.84717 547.29192 0.00000 269.91734 0.00000 -999.00000 880.00000 -999.00000 
0.09003 0.91440 0.03235 -0.84083 543.00901 0.00000 269.92090 0.00000 -999.00000 880.00000 -999.00000 
0.09189 0.91440 0.03238 -0.83494 538.67659 0.00000 269.92418 0.00000 -999.00000 880.00000 -999.00000 
0.09383 0.91440 0.03241 -0.82629 535.43389 0.00000 269.92913 0.00000 -999.00000 880.00000 -999.00000 
0.09588 0.91440 0.03242 -0.81870 532.15298 0.00000 269.93345 0.00000 -999.00000 880.00000 -999.00000 
0.09802 0.91440 0.03244 -0.81071 528.76570 0.00000 269.93800 0.00000 -999.00000 880.00000 -999.00000 
0.10028 0.91440 0.03244 -0.80247 525.31694 0.00000 269.94269 0.00000 -999.00000 880.00000 -999.00000 
0.10264 0.91440 0.03244 -0.79394 521.79218 0.00000 269.94754 0.00000 -999.00000 880.00000 -999.00000 
0.10513 0.91440 0.03243 -0.78519 518.21788 0.00000 269.95252 0.00000 -999.00000 880.00000 -999.00000 
0.10774 0.91440 0.03240 -0.77611 514.59723 0.00000 269.95767 0.00000 -999.00000 880.00000 -999.00000 
0.11048 0.91440 0.03237 -0.76680 510.88135 0.00000 269.96296 0.00000 -999.00000 880.00000 -999.00000 
0.11335 0.91440 0.03232 -0.75713 507.07432 0.00000 269.96845 0.00000 -999.00000 880.00000 -999.00000 
0.11637 0.91440 0.03226 -0.74714 503.18675 0.00000 269.97411 0.00000 -999.00000 880.00000 -999.00000 
0.11954 0.91440 0.03218 -0.73687 499.17113 0.00000 269.97992 0.00000 -999.00000 880.00000 -999.00000 
0.12287 0.91440 0.03209 -0.72622 494.98979 0.00000 269.98594 0.00000 -999.00000 880.00000 -999.00000 
0.12636 0.91440 0.03198 -0.71533 490.59989 0.00000 269.99208 0.00000 -999.00000 880.00000 -999.00000 
0.13003 0.91440 0.03184 -0.70418 486.01961 0.00000 269.99836 0.00000 -999.00000 880.00000 -999.00000 
0.13382 0.91440 0.03169 -0.69288 481.37714 0.00000 270.00472 0.00000 -999.00000 880.00000 -999.00000 
0.13760 0.91440 0.03152 -0.68171 476.81823 0.00000 270.01099 0.00000 -999.00000 880.00000 -999.00000 
0.14138 0.91440 0.03134 -0.67080 472.38717 0.00000 270.01710 0.00000 -999.00000 880.00000 -999.00000 
0.14517 0.91440 0.03114 -0.66007 468.08691 0.00000 270.02311 0.00000 -999.00000 880.00000 -999.00000 
0.14895 0.91440 0.03092 -0.64955 463.91709 0.00000 270.02900 0.00000 -999.00000 880.00000 -999.00000 
0.15273 0.91440 0.03070 -0.63926 459.84053 0.00000 270.03475 0.00000 -999.00000 880.00000 -999.00000 
0.15651 0.91440 0.03046 -0.62908 455.85826 0.00000 270.04044 0.00000 -999.00000 880.00000 -999.00000 
0.16029 0.91440 0.03021 -0.61897 452.01755 0.00000 270.04608 0.00000 -999.00000 880.00000 -999.00000 
0.16406 0.91440 0.02994 -0.60905 448.32006 0.00000 270.05162 0.00000 -999.00000 880.00000 -999.00000 
0.16784 0.91440 0.02967 -0.59928 444.72158 0.00000 270.05707 0.00000 -999.00000 880.00000 -999.00000 
0.17162 0.91440 0.02938 -0.58963 441.18493 0.00000 270.06244 0.00000 -999.00000 880.00000 -999.00000 
0.17539 0.91440 0.02908 -0.58008 437.69249 0.00000 270.06775 0.00000 -999.00000 880.00000 -999.00000 
0.17917 0.91440 0.02877 -0.57064 434.24740 0.00000 270.07300 0.00000 -999.00000 880.00000 -999.00000 