#+++++++++++++++++++++++++++++++++++++++++++++++++++++++++++++++++++++++++++++++++++++++++++++++++++++++++++++++++++++++++++++++++
#
#   IPW-3 Final Ice Shape DATA SUBMITTAL FORM for Test Case NACA0012_AE3933, May 18th 2026
#
#       NOMENCLATURE:
#             X_ICED [m]:  X-coordinate of the iced surface
#             Y_ICED [m]:  Y-coordinate of the iced surface
#             Z_ICED [m]:  Z-coordinate of the iced surface
#
#                XXmm:  Roughness height used for the case, in mm.
#                       In the zone name, use the format KS_XXmm.
#                       For example, if k_s = 1.5 mm, use KS_1p5mm. 
#                       For Variable roughness, use KS_VAR
#
#    FLOW CONDITIONS:
#                                   AOA: 4.0 deg
#                           Mach Number: 0.3127 [-]
#       Mean aerodynamic chord (M.A.C.): 0.5334 [m]
#                       Reynolds Number: 3.8947 million (based on MAC)
#                       Freestream Temp: 270.95 [K]
#                        Reference area: 0.97548 [m2]
#               Moment Reference Center: 0.13335, 0, 0 [m] (X, Y, Z)
#
#    ICING CONDITIONS:
#                           Icing Time: 420 [s]
#                                  LWC: 0.55 [g/m3]
#                                  MVD: 20 [μm]
#
#              NOTES: 1. Please use at least 5 decimal places in the numerical values
#                     2. If data are NOT provided, please fill data fields with a numerical value of "-999" 
#
#++++++++++++++++++++++++++++++++++++++++++++++++++++++++++++++++++++++++++++++++++++++++++++++++++++++++++++++++++++

AUXDATA NUM_LAYERS  = "insert the number of total ice layers"
                                              
VARIABLES = "X_ICED" "Y_ICED" "Z_ICED"

ZONE T="SLICE_Y_0p9144_BINS01_KS_0p5334mm_SINGLE_LAYER"
0.53243 0.91440 -0.02791 
0.53241 0.91440 -0.02813 
0.53239 0.91440 -0.02835 
0.53238 0.91440 -0.02858 
0.53166 0.91440 -0.02863 
0.53051 0.91440 -0.02871 
0.52867 0.91440 -0.02883 
0.52572 0.91440 -0.02903 
0.52100 0.91440 -0.02935 
0.51345 0.91440 -0.02984 
0.50524 0.91440 -0.03035 
0.49702 0.91440 -0.03085 
0.48880 0.91440 -0.03133 
0.48058 0.91440 -0.03179 
0.47236 0.91440 -0.03223 
0.46413 0.91440 -0.03265 
0.45591 0.91440 -0.03305 
0.44769 0.91440 -0.03344 
0.43946 0.91440 -0.03381 
0.43124 0.91440 -0.03417 
0.42301 0.91440 -0.03450 
0.41478 0.91440 -0.03482 
0.40656 0.91440 -0.03513 
0.39833 0.91440 -0.03542 
0.39010 0.91440 -0.03569 
0.38187 0.91440 -0.03594 
0.37364 0.91440 -0.03618 
0.36541 0.91440 -0.03640 
0.35718 0.91440 -0.03660 
0.34895 0.91440 -0.03678 
0.34072 0.91440 -0.03695 
0.33249 0.91440 -0.03709 
0.32425 0.91440 -0.03722 
0.31602 0.91440 -0.03733 
0.30779 0.91440 -0.03741 
0.29956 0.91440 -0.03747 
0.29132 0.91440 -0.03751 
0.28309 0.91440 -0.03753 
0.27486 0.91440 -0.03752 
0.26662 0.91440 -0.03749 
0.25839 0.91440 -0.03742 
0.25016 0.91440 -0.03733 
0.24193 0.91440 -0.03721 
0.23369 0.91440 -0.03706 
0.22546 0.91440 -0.03687 
0.21723 0.91440 -0.03665 
0.20900 0.91440 -0.03639 
0.20078 0.91440 -0.03609 
0.19255 0.91440 -0.03576 
0.18433 0.91440 -0.03537 
0.17610 0.91440 -0.03494 
0.16820 0.91440 -0.03448 
0.16067 0.91440 -0.03400 
0.15350 0.91440 -0.03349 
0.14668 0.91440 -0.03297 
0.14019 0.91440 -0.03243 
0.13400 0.91440 -0.03188 
0.12812 0.91440 -0.03132 
0.12252 0.91440 -0.03075 
0.11719 0.91440 -0.03017 
0.11212 0.91440 -0.02959 
0.10729 0.91440 -0.02901 
0.10270 0.91440 -0.02842 
0.09832 0.91440 -0.02783 
0.09416 0.91440 -0.02725 
0.09021 0.91440 -0.02667 
0.08644 0.91440 -0.02609 
0.08262 0.91440 -0.02547 
0.07881 0.91440 -0.02483 
0.07500 0.91440 -0.02417 
0.07120 0.91440 -0.02347 
0.06740 0.91440 -0.02274 
0.06361 0.91440 -0.02197 
0.05982 0.91440 -0.02178 
0.05628 0.91440 -0.02355 
0.05175 0.91440 -0.02470 
0.04727 0.91440 -0.02387 
0.04337 0.91440 -0.02304 
0.03952 0.91440 -0.02202 
0.03570 0.91440 -0.02092 
0.03189 0.91440 -0.01973 
0.02810 0.91440 -0.01845 
0.02432 0.91440 -0.01704 
0.02057 0.91440 -0.01548 
0.01685 0.91440 -0.01375 
0.01319 0.91440 -0.01180 
0.00962 0.91440 -0.00957 
0.00620 0.91440 -0.00702 
0.00298 0.91440 -0.00411 
0.00052 0.91440 -0.00133 
-0.00127 0.91440 0.00098 
-0.00296 0.91440 0.00280 
-0.00478 0.91440 0.00483 
-0.00651 0.91440 0.00764 
-0.00760 0.91440 0.01124 
-0.00762 0.91440 0.01594 
-0.00501 0.91440 0.02130 
0.00140 0.91440 0.02585 
0.00763 0.91440 0.02341 
0.01059 0.91440 0.02051 
0.01410 0.91440 0.02208 
0.01771 0.91440 0.02342 
0.02138 0.91440 0.02458 
0.02509 0.91440 0.02559 
0.02883 0.91440 0.02649 
0.03260 0.91440 0.02728 
0.03638 0.91440 0.02798 
0.04018 0.91440 0.02861 
0.04399 0.91440 0.02917 
0.04780 0.91440 0.02967 
0.05163 0.91440 0.03012 
0.05545 0.91440 0.03052 
0.05929 0.91440 0.03087 
0.06312 0.91440 0.03117 
0.06696 0.91440 0.03144 
0.07080 0.91440 0.03167 
0.07465 0.91440 0.03187 
0.07849 0.91440 0.03203 
0.08234 0.91440 0.03217 
0.08618 0.91440 0.03228 
0.09003 0.91440 0.03235 
0.09374 0.91440 0.03241 
0.09763 0.91440 0.03244 
0.10172 0.91440 0.03244 
0.10601 0.91440 0.03242 
0.11052 0.91440 0.03237 
0.11525 0.91440 0.03228 
0.12022 0.91440 0.03217 
0.12544 0.91440 0.03201 
0.13091 0.91440 0.03181 
0.13666 0.91440 0.03156 
0.14269 0.91440 0.03127 
0.14903 0.91440 0.03092 
0.15567 0.91440 0.03051 
0.16265 0.91440 0.03004 
0.16997 0.91440 0.02950 
0.17766 0.91440 0.02889 
0.18572 0.91440 0.02820 
0.19400 0.91440 0.02745 
0.20227 0.91440 0.02665 
0.21054 0.91440 0.02580 
0.21880 0.91440 0.02492 
0.22706 0.91440 0.02400 
0.23531 0.91440 0.02304 
0.24356 0.91440 0.02204 
0.25180 0.91440 0.02102 
0.26005 0.91440 0.01996 
0.26828 0.91440 0.01888 
0.27652 0.91440 0.01776 
0.28475 0.91440 0.01662 
0.29297 0.91440 0.01545 
0.30120 0.91440 0.01426 
0.30942 0.91440 0.01305 
0.31763 0.91440 0.01181 
0.32585 0.91440 0.01056 
0.33406 0.91440 0.00928 
0.34227 0.91440 0.00798 
0.35047 0.91440 0.00666 
0.35867 0.91440 0.00533 
0.36687 0.91440 0.00397 
0.37506 0.91440 0.00260 
0.38326 0.91440 0.00121 
0.39144 0.91440 -0.00020 
0.39963 0.91440 -0.00162 
0.40781 0.91440 -0.00306 
0.41599 0.91440 -0.00452 
0.42417 0.91440 -0.00600 
0.43235 0.91440 -0.00749 
0.44052 0.91440 -0.00900 
0.44868 0.91440 -0.01052 
0.45685 0.91440 -0.01206 
0.46501 0.91440 -0.01362 
0.47317 0.91440 -0.01520 
0.48132 0.91440 -0.01679 
0.48947 0.91440 -0.01840 
0.49762 0.91440 -0.02003 
0.50577 0.91440 -0.02168 
0.51391 0.91440 -0.02335 
0.52131 0.91440 -0.02489 
0.52594 0.91440 -0.02586 
0.52883 0.91440 -0.02646 
0.53064 0.91440 -0.02685 
0.53177 0.91440 -0.02709 
0.53247 0.91440 -0.02724 
0.53246 0.91440 -0.02746 
0.53244 0.91440 -0.02768 
0.53243 0.91440 -0.02791 

ZONE T="SLICE_Y_0p9144_BINS03_KS_0p5334mm_SINGLE_LAYER"
0.53243 0.91440 -0.02791 
0.53241 0.91440 -0.02813 
0.53239 0.91440 -0.02835 
0.53238 0.91440 -0.02858 
0.53166 0.91440 -0.02863 
0.53051 0.91440 -0.02871 
0.52867 0.91440 -0.02883 
0.52572 0.91440 -0.02903 
0.52100 0.91440 -0.02935 
0.51345 0.91440 -0.02984 
0.50524 0.91440 -0.03035 
0.49702 0.91440 -0.03085 
0.48880 0.91440 -0.03133 
0.48058 0.91440 -0.03179 
0.47236 0.91440 -0.03223 
0.46413 0.91440 -0.03265 
0.45591 0.91440 -0.03305 
0.44769 0.91440 -0.03344 
0.43946 0.91440 -0.03381 
0.43124 0.91440 -0.03417 
0.42301 0.91440 -0.03450 
0.41478 0.91440 -0.03482 
0.40656 0.91440 -0.03513 
0.39833 0.91440 -0.03542 
0.39010 0.91440 -0.03569 
0.38187 0.91440 -0.03594 
0.37364 0.91440 -0.03618 
0.36541 0.91440 -0.03640 
0.35718 0.91440 -0.03660 
0.34895 0.91440 -0.03678 
0.34072 0.91440 -0.03695 
0.33249 0.91440 -0.03709 
0.32425 0.91440 -0.03722 
0.31602 0.91440 -0.03733 
0.30779 0.91440 -0.03741 
0.29956 0.91440 -0.03747 
0.29132 0.91440 -0.03751 
0.28309 0.91440 -0.03753 
0.27486 0.91440 -0.03752 
0.26662 0.91440 -0.03749 
0.25839 0.91440 -0.03742 
0.25016 0.91440 -0.03733 
0.24193 0.91440 -0.03721 
0.23369 0.91440 -0.03706 
0.22546 0.91440 -0.03687 
0.21723 0.91440 -0.03665 
0.20900 0.91440 -0.03639 
0.20078 0.91440 -0.03609 
0.19255 0.91440 -0.03576 
0.18433 0.91440 -0.03537 
0.17610 0.91440 -0.03494 
0.16820 0.91440 -0.03448 
0.16067 0.91440 -0.03400 
0.15350 0.91440 -0.03349 
0.14668 0.91440 -0.03297 
0.14019 0.91440 -0.03243 
0.13400 0.91440 -0.03190 
0.12811 0.91440 -0.03139 
0.12251 0.91440 -0.03086 
0.11717 0.91440 -0.03033 
0.11209 0.91440 -0.02980 
0.10726 0.91440 -0.02926 
0.10266 0.91440 -0.02872 
0.09828 0.91440 -0.02819 
0.09411 0.91440 -0.02765 
0.09014 0.91440 -0.02711 
0.08637 0.91440 -0.02658 
0.08254 0.91440 -0.02602 
0.07871 0.91440 -0.02543 
0.07489 0.91440 -0.02482 
0.07107 0.91440 -0.02418 
0.06725 0.91440 -0.02351 
0.06344 0.91440 -0.02282 
0.05970 0.91440 -0.02211 
0.05604 0.91440 -0.02245 
0.05217 0.91440 -0.02372 
0.04760 0.91440 -0.02385 
0.04340 0.91440 -0.02296 
0.03953 0.91440 -0.02200 
0.03570 0.91440 -0.02089 
0.03190 0.91440 -0.01970 
0.02810 0.91440 -0.01840 
0.02433 0.91440 -0.01698 
0.02058 0.91440 -0.01541 
0.01688 0.91440 -0.01367 
0.01323 0.91440 -0.01171 
0.00968 0.91440 -0.00948 
0.00627 0.91440 -0.00693 
0.00305 0.91440 -0.00404 
0.00059 0.91440 -0.00127 
-0.00119 0.91440 0.00104 
-0.00288 0.91440 0.00285 
-0.00470 0.91440 0.00487 
-0.00642 0.91440 0.00767 
-0.00752 0.91440 0.01129 
-0.00740 0.91440 0.01592 
-0.00473 0.91440 0.02151 
0.00182 0.91440 0.02538 
0.00729 0.91440 0.02340 
0.01043 0.91440 0.02153 
0.01393 0.91440 0.02258 
0.01766 0.91440 0.02357 
0.02138 0.91440 0.02458 
0.02509 0.91440 0.02559 
0.02883 0.91440 0.02649 
0.03260 0.91440 0.02728 
0.03638 0.91440 0.02798 
0.04018 0.91440 0.02861 
0.04399 0.91440 0.02917 
0.04780 0.91440 0.02967 
0.05163 0.91440 0.03012 
0.05545 0.91440 0.03052 
0.05929 0.91440 0.03087 
0.06312 0.91440 0.03117 
0.06696 0.91440 0.03144 
0.07080 0.91440 0.03167 
0.07465 0.91440 0.03187 
0.07849 0.91440 0.03203 
0.08234 0.91440 0.03217 
0.08618 0.91440 0.03228 
0.09003 0.91440 0.03235 
0.09374 0.91440 0.03241 
0.09763 0.91440 0.03244 
0.10172 0.91440 0.03244 
0.10601 0.91440 0.03242 
0.11052 0.91440 0.03237 
0.11525 0.91440 0.03228 
0.12022 0.91440 0.03217 
0.12544 0.91440 0.03201 
0.13091 0.91440 0.03181 
0.13666 0.91440 0.03156 
0.14269 0.91440 0.03127 
0.14903 0.91440 0.03092 
0.15567 0.91440 0.03051 
0.16265 0.91440 0.03004 
0.16997 0.91440 0.02950 
0.17766 0.91440 0.02889 
0.18572 0.91440 0.02820 
0.19400 0.91440 0.02745 
0.20227 0.91440 0.02665 
0.21054 0.91440 0.02580 
0.21880 0.91440 0.02492 
0.22706 0.91440 0.02400 
0.23531 0.91440 0.02304 
0.24356 0.91440 0.02204 
0.25180 0.91440 0.02102 
0.26005 0.91440 0.01996 
0.26828 0.91440 0.01888 
0.27652 0.91440 0.01776 
0.28475 0.91440 0.01662 
0.29297 0.91440 0.01545 
0.30120 0.91440 0.01426 
0.30942 0.91440 0.01305 
0.31763 0.91440 0.01181 
0.32585 0.91440 0.01056 
0.33406 0.91440 0.00928 
0.34227 0.91440 0.00798 
0.35047 0.91440 0.00666 
0.35867 0.91440 0.00533 
0.36687 0.91440 0.00397 
0.37506 0.91440 0.00260 
0.38326 0.91440 0.00121 
0.39144 0.91440 -0.00020 
0.39963 0.91440 -0.00162 
0.40781 0.91440 -0.00306 
0.41599 0.91440 -0.00452 
0.42417 0.91440 -0.00600 
0.43235 0.91440 -0.00749 
0.44052 0.91440 -0.00900 
0.44868 0.91440 -0.01052 
0.45685 0.91440 -0.01206 
0.46501 0.91440 -0.01362 
0.47317 0.91440 -0.01520 
0.48132 0.91440 -0.01679 
0.48947 0.91440 -0.01840 
0.49762 0.91440 -0.02003 
0.50577 0.91440 -0.02168 
0.51391 0.91440 -0.02335 
0.52131 0.91440 -0.02489 
0.52594 0.91440 -0.02586 
0.52883 0.91440 -0.02646 
0.53064 0.91440 -0.02685 
0.53177 0.91440 -0.02709 
0.53247 0.91440 -0.02724 
0.53246 0.91440 -0.02746 
0.53244 0.91440 -0.02768 
0.53243 0.91440 -0.02791 

ZONE T="SLICE_Y_0p9144_BINS07_KS_0p5334mm_SINGLE_LAYER"
0.53243 0.91440 -0.02791 
0.53241 0.91440 -0.02813 
0.53239 0.91440 -0.02835 
0.53238 0.91440 -0.02858 
0.53166 0.91440 -0.02863 
0.53051 0.91440 -0.02871 
0.52867 0.91440 -0.02883 
0.52572 0.91440 -0.02903 
0.52100 0.91440 -0.02935 
0.51345 0.91440 -0.02984 
0.50524 0.91440 -0.03035 
0.49702 0.91440 -0.03085 
0.48880 0.91440 -0.03133 
0.48058 0.91440 -0.03179 
0.47236 0.91440 -0.03223 
0.46413 0.91440 -0.03265 
0.45591 0.91440 -0.03305 
0.44769 0.91440 -0.03344 
0.43946 0.91440 -0.03381 
0.43124 0.91440 -0.03417 
0.42301 0.91440 -0.03450 
0.41478 0.91440 -0.03482 
0.40656 0.91440 -0.03513 
0.39833 0.91440 -0.03542 
0.39010 0.91440 -0.03569 
0.38187 0.91440 -0.03594 
0.37364 0.91440 -0.03618 
0.36541 0.91440 -0.03640 
0.35718 0.91440 -0.03660 
0.34895 0.91440 -0.03678 
0.34072 0.91440 -0.03695 
0.33249 0.91440 -0.03709 
0.32425 0.91440 -0.03722 
0.31602 0.91440 -0.03733 
0.30779 0.91440 -0.03741 
0.29956 0.91440 -0.03747 
0.29132 0.91440 -0.03751 
0.28309 0.91440 -0.03753 
0.27486 0.91440 -0.03752 
0.26662 0.91440 -0.03749 
0.25839 0.91440 -0.03742 
0.25016 0.91440 -0.03733 
0.24193 0.91440 -0.03721 
0.23369 0.91440 -0.03706 
0.22546 0.91440 -0.03687 
0.21723 0.91440 -0.03665 
0.20900 0.91440 -0.03639 
0.20078 0.91440 -0.03609 
0.19255 0.91440 -0.03576 
0.18433 0.91440 -0.03537 
0.17610 0.91440 -0.03494 
0.16820 0.91440 -0.03448 
0.16067 0.91440 -0.03400 
0.15350 0.91440 -0.03349 
0.14668 0.91440 -0.03297 
0.14018 0.91440 -0.03244 
0.13400 0.91440 -0.03191 
0.12811 0.91440 -0.03140 
0.12251 0.91440 -0.03087 
0.11717 0.91440 -0.03034 
0.11209 0.91440 -0.02981 
0.10726 0.91440 -0.02927 
0.10266 0.91440 -0.02873 
0.09828 0.91440 -0.02819 
0.09411 0.91440 -0.02766 
0.09014 0.91440 -0.02712 
0.08636 0.91440 -0.02661 
0.08253 0.91440 -0.02609 
0.07870 0.91440 -0.02555 
0.07486 0.91440 -0.02498 
0.07104 0.91440 -0.02439 
0.06721 0.91440 -0.02378 
0.06339 0.91440 -0.02314 
0.05961 0.91440 -0.02249 
0.05595 0.91440 -0.02229 
0.05224 0.91440 -0.02341 
0.04772 0.91440 -0.02391 
0.04340 0.91440 -0.02299 
0.03951 0.91440 -0.02205 
0.03568 0.91440 -0.02093 
0.03188 0.91440 -0.01973 
0.02809 0.91440 -0.01843 
0.02431 0.91440 -0.01700 
0.02058 0.91440 -0.01542 
0.01688 0.91440 -0.01367 
0.01323 0.91440 -0.01172 
0.00967 0.91440 -0.00949 
0.00626 0.91440 -0.00693 
0.00305 0.91440 -0.00404 
0.00059 0.91440 -0.00127 
-0.00119 0.91440 0.00104 
-0.00288 0.91440 0.00284 
-0.00471 0.91440 0.00486 
-0.00643 0.91440 0.00766 
-0.00755 0.91440 0.01130 
-0.00738 0.91440 0.01594 
-0.00467 0.91440 0.02163 
0.00193 0.91440 0.02525 
0.00718 0.91440 0.02347 
0.01037 0.91440 0.02187 
0.01392 0.91440 0.02263 
0.01766 0.91440 0.02359 
0.02138 0.91440 0.02458 
0.02509 0.91440 0.02559 
0.02883 0.91440 0.02649 
0.03260 0.91440 0.02728 
0.03638 0.91440 0.02798 
0.04018 0.91440 0.02861 
0.04399 0.91440 0.02917 
0.04780 0.91440 0.02967 
0.05163 0.91440 0.03012 
0.05545 0.91440 0.03052 
0.05929 0.91440 0.03087 
0.06312 0.91440 0.03117 
0.06696 0.91440 0.03144 
0.07080 0.91440 0.03167 
0.07465 0.91440 0.03187 
0.07849 0.91440 0.03203 
0.08234 0.91440 0.03217 
0.08618 0.91440 0.03228 
0.09003 0.91440 0.03235 
0.09374 0.91440 0.03241 
0.09763 0.91440 0.03244 
0.10172 0.91440 0.03244 
0.10601 0.91440 0.03242 
0.11052 0.91440 0.03237 
0.11525 0.91440 0.03228 
0.12022 0.91440 0.03217 
0.12544 0.91440 0.03201 
0.13091 0.91440 0.03181 
0.13666 0.91440 0.03156 
0.14269 0.91440 0.03127 
0.14903 0.91440 0.03092 
0.15567 0.91440 0.03051 
0.16265 0.91440 0.03004 
0.16997 0.91440 0.02950 
0.17766 0.91440 0.02889 
0.18572 0.91440 0.02820 
0.19400 0.91440 0.02745 
0.20227 0.91440 0.02665 
0.21054 0.91440 0.02580 
0.21880 0.91440 0.02492 
0.22706 0.91440 0.02400 
0.23531 0.91440 0.02304 
0.24356 0.91440 0.02204 
0.25180 0.91440 0.02102 
0.26005 0.91440 0.01996 
0.26828 0.91440 0.01888 
0.27652 0.91440 0.01776 
0.28475 0.91440 0.01662 
0.29297 0.91440 0.01545 
0.30120 0.91440 0.01426 
0.30942 0.91440 0.01305 
0.31763 0.91440 0.01181 
0.32585 0.91440 0.01056 
0.33406 0.91440 0.00928 
0.34227 0.91440 0.00798 
0.35047 0.91440 0.00666 
0.35867 0.91440 0.00533 
0.36687 0.91440 0.00397 
0.37506 0.91440 0.00260 
0.38326 0.91440 0.00121 
0.39144 0.91440 -0.00020 
0.39963 0.91440 -0.00162 
0.40781 0.91440 -0.00306 
0.41599 0.91440 -0.00452 
0.42417 0.91440 -0.00600 
0.43235 0.91440 -0.00749 
0.44052 0.91440 -0.00900 
0.44868 0.91440 -0.01052 
0.45685 0.91440 -0.01206 
0.46501 0.91440 -0.01362 
0.47317 0.91440 -0.01520 
0.48132 0.91440 -0.01679 
0.48947 0.91440 -0.01840 
0.49762 0.91440 -0.02003 
0.50577 0.91440 -0.02168 
0.51391 0.91440 -0.02335 
0.52131 0.91440 -0.02489 
0.52594 0.91440 -0.02586 
0.52883 0.91440 -0.02646 
0.53064 0.91440 -0.02685 
0.53177 0.91440 -0.02709 
0.53247 0.91440 -0.02724 
0.53246 0.91440 -0.02746 
0.53244 0.91440 -0.02768 
0.53243 0.91440 -0.02791 

ZONE T="SLICE_Y_0p9144_BINS15_KS_0p5334mm_SINGLE_LAYER"
0.53243 0.91440 -0.02791 
0.53241 0.91440 -0.02813 
0.53239 0.91440 -0.02835 
0.53238 0.91440 -0.02858 
0.53166 0.91440 -0.02863 
0.53051 0.91440 -0.02871 
0.52867 0.91440 -0.02883 
0.52572 0.91440 -0.02903 
0.52100 0.91440 -0.02935 
0.51345 0.91440 -0.02984 
0.50524 0.91440 -0.03035 
0.49702 0.91440 -0.03085 
0.48880 0.91440 -0.03133 
0.48058 0.91440 -0.03179 
0.47236 0.91440 -0.03223 
0.46413 0.91440 -0.03265 
0.45591 0.91440 -0.03305 
0.44769 0.91440 -0.03344 
0.43946 0.91440 -0.03381 
0.43124 0.91440 -0.03417 
0.42301 0.91440 -0.03450 
0.41478 0.91440 -0.03482 
0.40656 0.91440 -0.03513 
0.39833 0.91440 -0.03542 
0.39010 0.91440 -0.03569 
0.38187 0.91440 -0.03594 
0.37364 0.91440 -0.03618 
0.36541 0.91440 -0.03640 
0.35718 0.91440 -0.03660 
0.34895 0.91440 -0.03678 
0.34072 0.91440 -0.03695 
0.33249 0.91440 -0.03709 
0.32425 0.91440 -0.03722 
0.31602 0.91440 -0.03733 
0.30779 0.91440 -0.03741 
0.29956 0.91440 -0.03747 
0.29132 0.91440 -0.03751 
0.28309 0.91440 -0.03753 
0.27486 0.91440 -0.03752 
0.26662 0.91440 -0.03749 
0.25839 0.91440 -0.03742 
0.25016 0.91440 -0.03733 
0.24193 0.91440 -0.03721 
0.23369 0.91440 -0.03706 
0.22546 0.91440 -0.03687 
0.21723 0.91440 -0.03665 
0.20900 0.91440 -0.03639 
0.20078 0.91440 -0.03609 
0.19255 0.91440 -0.03576 
0.18433 0.91440 -0.03537 
0.17610 0.91440 -0.03494 
0.16820 0.91440 -0.03448 
0.16067 0.91440 -0.03400 
0.15350 0.91440 -0.03349 
0.14668 0.91440 -0.03297 
0.14018 0.91440 -0.03245 
0.13400 0.91440 -0.03193 
0.12811 0.91440 -0.03140 
0.12251 0.91440 -0.03087 
0.11717 0.91440 -0.03034 
0.11209 0.91440 -0.02980 
0.10726 0.91440 -0.02927 
0.10266 0.91440 -0.02874 
0.09828 0.91440 -0.02821 
0.09411 0.91440 -0.02768 
0.09014 0.91440 -0.02716 
0.08636 0.91440 -0.02665 
0.08253 0.91440 -0.02611 
0.07869 0.91440 -0.02556 
0.07486 0.91440 -0.02498 
0.07104 0.91440 -0.02438 
0.06721 0.91440 -0.02376 
0.06339 0.91440 -0.02313 
0.05960 0.91440 -0.02249 
0.05595 0.91440 -0.02219 
0.05227 0.91440 -0.02332 
0.04775 0.91440 -0.02391 
0.04340 0.91440 -0.02298 
0.03951 0.91440 -0.02205 
0.03568 0.91440 -0.02093 
0.03188 0.91440 -0.01973 
0.02809 0.91440 -0.01843 
0.02432 0.91440 -0.01700 
0.02057 0.91440 -0.01542 
0.01688 0.91440 -0.01367 
0.01323 0.91440 -0.01171 
0.00967 0.91440 -0.00948 
0.00626 0.91440 -0.00693 
0.00306 0.91440 -0.00403 
0.00060 0.91440 -0.00127 
-0.00119 0.91440 0.00104 
-0.00288 0.91440 0.00284 
-0.00471 0.91440 0.00486 
-0.00643 0.91440 0.00766 
-0.00754 0.91440 0.01130 
-0.00737 0.91440 0.01594 
-0.00464 0.91440 0.02164 
0.00198 0.91440 0.02523 
0.00717 0.91440 0.02343 
0.01036 0.91440 0.02190 
0.01391 0.91440 0.02268 
0.01765 0.91440 0.02360 
0.02137 0.91440 0.02459 
0.02509 0.91440 0.02559 
0.02883 0.91440 0.02649 
0.03260 0.91440 0.02728 
0.03638 0.91440 0.02798 
0.04018 0.91440 0.02861 
0.04399 0.91440 0.02917 
0.04780 0.91440 0.02967 
0.05163 0.91440 0.03012 
0.05545 0.91440 0.03052 
0.05929 0.91440 0.03087 
0.06312 0.91440 0.03117 
0.06696 0.91440 0.03144 
0.07080 0.91440 0.03167 
0.07465 0.91440 0.03187 
0.07849 0.91440 0.03203 
0.08234 0.91440 0.03217 
0.08618 0.91440 0.03228 
0.09003 0.91440 0.03235 
0.09374 0.91440 0.03241 
0.09763 0.91440 0.03244 
0.10172 0.91440 0.03244 
0.10601 0.91440 0.03242 
0.11052 0.91440 0.03237 
0.11525 0.91440 0.03228 
0.12022 0.91440 0.03217 
0.12544 0.91440 0.03201 
0.13091 0.91440 0.03181 
0.13666 0.91440 0.03156 
0.14269 0.91440 0.03127 
0.14903 0.91440 0.03092 
0.15567 0.91440 0.03051 
0.16265 0.91440 0.03004 
0.16997 0.91440 0.02950 
0.17766 0.91440 0.02889 
0.18572 0.91440 0.02820 
0.19400 0.91440 0.02745 
0.20227 0.91440 0.02665 
0.21054 0.91440 0.02580 
0.21880 0.91440 0.02492 
0.22706 0.91440 0.02400 
0.23531 0.91440 0.02304 
0.24356 0.91440 0.02204 
0.25180 0.91440 0.02102 
0.26005 0.91440 0.01996 
0.26828 0.91440 0.01888 
0.27652 0.91440 0.01776 
0.28475 0.91440 0.01662 
0.29297 0.91440 0.01545 
0.30120 0.91440 0.01426 
0.30942 0.91440 0.01305 
0.31763 0.91440 0.01181 
0.32585 0.91440 0.01056 
0.33406 0.91440 0.00928 
0.34227 0.91440 0.00798 
0.35047 0.91440 0.00666 
0.35867 0.91440 0.00533 
0.36687 0.91440 0.00397 
0.37506 0.91440 0.00260 
0.38326 0.91440 0.00121 
0.39144 0.91440 -0.00020 
0.39963 0.91440 -0.00162 
0.40781 0.91440 -0.00306 
0.41599 0.91440 -0.00452 
0.42417 0.91440 -0.00600 
0.43235 0.91440 -0.00749 
0.44052 0.91440 -0.00900 
0.44868 0.91440 -0.01052 
0.45685 0.91440 -0.01206 
0.46501 0.91440 -0.01362 
0.47317 0.91440 -0.01520 
0.48132 0.91440 -0.01679 
0.48947 0.91440 -0.01840 
0.49762 0.91440 -0.02003 
0.50577 0.91440 -0.02168 
0.51391 0.91440 -0.02335 
0.52131 0.91440 -0.02489 
0.52594 0.91440 -0.02586 
0.52883 0.91440 -0.02646 
0.53064 0.91440 -0.02685 
0.53177 0.91440 -0.02709 
0.53247 0.91440 -0.02724 
0.53246 0.91440 -0.02746 
0.53244 0.91440 -0.02768 
0.53243 0.91440 -0.02791 

