#+++++++++++++++++++++++++++++++++++++++++++++++++++++++++++++++++++++++++++++++++++++++++++++++++++++++++++++++++++++++++++++++++
#
#   IPW-3 Cut/Slice DATA SUBMITTAL FORM for Test Case NACA0012_AE3933, May 18th 2026
#
#       NOMENCLATURE:
#                  X [m]:  X-coordinate of the surface (clean for reference)
#                  Y [m]:  Y-coordinate of the surface (clean for reference)
#                  Z [m]:  Z-coordinate of the surface (clean for reference)
#                 Cp [-]:  Pressure coefficient
#            HTC [W/m2K]:  Convective Heat Transfer Coefficient (on the rough surface)
#               Beta [-]:  Collection efficiency
#                 Ts [K]:  Surface temperature
#                 FF [-]:  Freezing fraction
#                  k [m]:  Surface roughness height if variable (OPTIONAL)
#         RhoIce [kg/m3]:  Ice density (OPTIONAL)
#      HTC_CLEAN [W/m2K]:  Convective Heat Transfer Coefficient on the surface without roughness (OPTIONAL)
#
#                XXmm:  Roughness height used for the case, in mm.
#                       In the zone name, use the format KS_XXmm.
#                       For example, if k_s = 1.5 mm, use KS_1p5mm. 
#                       For Variable roughness, use KS_VAR
#
#    FLOW CONDITIONS:
#                                   AOA: 4.0 deg
#                           Mach Number: 0.3127 [-]
#       Mean aerodynamic chord (M.A.C.): 0.5334 [m]
#                       Reynolds Number: 3.8947 million (based on MAC)
#                       Freestream Temp: 270.95 [K]
#                        Reference area: 0.97548 [m2]
#               Moment Reference Center: 0.13335, 0, 0 [m] (X, Y, Z)
#
#    ICING CONDITIONS:
#                           Icing Time: 420 [s]
#                                  LWC: 0.55 [g/m3]
#                                  MVD: 20 [μm]
#
#              NOTES: 1. Please use at least 5 decimal places in the numerical values
#                     2. If data are NOT provided, please fill data fields with a numerical value of "-999" 
#
#++++++++++++++++++++++++++++++++++++++++++++++++++++++++++++++++++++++++++++++++++++++++++++++++++++++++++++++++++++

                                                    <- Optional ->                 
VARIABLES = "X" "Y" "Z" "Cp" "HTC" "Beta" "Ts" "FF" "k" "RhoIce" "HTC_CLEAN"

ZONE T="SLICE_Y_0p9144_BINS01_KS_0p5mm_CUTDATA"
0.53242 0.91440 -0.02795 0.09162 178.19304 0.00000 275.64015 0.00000 -999.00000 680.00000 -999.00000 
0.53242 0.91440 -0.02804 0.09142 178.74733 0.00000 275.64030 0.00000 -999.00000 680.00000 -999.00000 
0.53241 0.91440 -0.02813 0.09062 168.79429 0.00000 275.63487 0.00000 -999.00000 680.00000 -999.00000 
0.53240 0.91440 -0.02822 0.08698 149.77648 0.00000 275.62159 0.00000 -999.00000 680.00000 -999.00000 
0.53240 0.91440 -0.02831 0.08165 127.63926 0.00000 275.60162 0.00000 -999.00000 680.00000 -999.00000 
0.53239 0.91440 -0.02840 0.07549 100.22593 0.00000 275.56474 0.00000 -999.00000 680.00000 -999.00000 
0.53238 0.91440 -0.02849 0.02101 133.00571 0.00000 274.57709 0.00000 -999.00000 680.00000 -999.00000 
0.53238 0.91440 -0.02858 -0.02963 182.16620 0.00000 273.61523 0.00000 -999.00000 680.00000 -999.00000 
0.53213 0.91440 -0.02859 0.14912 285.37829 0.00000 274.05401 0.00000 -999.00000 680.00000 -999.00000 
0.53172 0.91440 -0.02862 0.11158 280.13728 0.00000 273.96297 0.00000 -999.00000 680.00000 -999.00000 
0.53107 0.91440 -0.02867 0.11535 267.32203 0.00000 273.97116 0.00000 -999.00000 680.00000 -999.00000 
0.53003 0.91440 -0.02874 0.11180 265.28946 0.00000 273.96248 0.00000 -999.00000 680.00000 -999.00000 
0.52837 0.91440 -0.02885 0.10768 265.60877 0.00000 273.95267 0.00000 -999.00000 680.00000 -999.00000 
0.52580 0.91440 -0.02903 0.10272 267.74103 0.00000 273.94099 0.00000 -999.00000 680.00000 -999.00000 
0.52324 0.91440 -0.02920 0.09815 270.59499 0.00000 273.93022 0.00000 -999.00000 680.00000 -999.00000 
0.52067 0.91440 -0.02937 0.09327 273.53176 0.00000 273.91870 0.00000 -999.00000 680.00000 -999.00000 
0.51810 0.91440 -0.02954 0.08864 276.36200 0.00000 273.90778 0.00000 -999.00000 680.00000 -999.00000 
0.51553 0.91440 -0.02971 0.08415 279.00195 0.00000 273.89719 0.00000 -999.00000 680.00000 -999.00000 
0.51296 0.91440 -0.02987 0.07983 281.44815 0.00000 273.88697 0.00000 -999.00000 680.00000 -999.00000 
0.51039 0.91440 -0.03003 0.07568 283.73393 0.00000 273.87716 0.00000 -999.00000 680.00000 -999.00000 
0.50782 0.91440 -0.03019 0.07169 285.88113 0.00000 273.86744 0.00000 -999.00000 680.00000 -999.00000 
0.50525 0.91440 -0.03035 0.06783 287.91509 0.00000 273.85802 0.00000 -999.00000 680.00000 -999.00000 
0.50268 0.91440 -0.03051 0.06408 289.86433 0.00000 273.84915 0.00000 -999.00000 680.00000 -999.00000 
0.50011 0.91440 -0.03067 0.06047 291.74346 0.00000 273.84060 0.00000 -999.00000 680.00000 -999.00000 
0.49754 0.91440 -0.03082 0.05699 293.54890 0.00000 273.83234 0.00000 -999.00000 680.00000 -999.00000 
0.49497 0.91440 -0.03097 0.05360 295.28318 0.00000 273.82431 0.00000 -999.00000 680.00000 -999.00000 
0.49240 0.91440 -0.03112 0.05033 296.95535 0.00000 273.81656 0.00000 -999.00000 680.00000 -999.00000 
0.48983 0.91440 -0.03127 0.04715 298.56390 0.00000 273.80903 0.00000 -999.00000 680.00000 -999.00000 
0.48726 0.91440 -0.03141 0.04406 300.11927 0.00000 273.80170 0.00000 -999.00000 680.00000 -999.00000 
0.48469 0.91440 -0.03156 0.04107 301.62680 0.00000 273.79460 0.00000 -999.00000 680.00000 -999.00000 
0.48212 0.91440 -0.03170 0.03816 303.08267 0.00000 273.78772 0.00000 -999.00000 680.00000 -999.00000 
0.47955 0.91440 -0.03184 0.03534 304.48802 0.00000 273.78102 0.00000 -999.00000 680.00000 -999.00000 
0.47698 0.91440 -0.03198 0.03259 305.85103 0.00000 273.77450 0.00000 -999.00000 680.00000 -999.00000 
0.47441 0.91440 -0.03212 0.02991 307.17504 0.00000 273.76816 0.00000 -999.00000 680.00000 -999.00000 
0.47184 0.91440 -0.03225 0.02730 308.46108 0.00000 273.76197 0.00000 -999.00000 680.00000 -999.00000 
0.46927 0.91440 -0.03239 0.02476 309.71345 0.00000 273.75594 0.00000 -999.00000 680.00000 -999.00000 
0.46670 0.91440 -0.03252 0.02229 310.93366 0.00000 273.75008 0.00000 -999.00000 680.00000 -999.00000 
0.46413 0.91440 -0.03265 0.01987 312.11979 0.00000 273.74435 0.00000 -999.00000 680.00000 -999.00000 
0.46156 0.91440 -0.03278 0.01752 313.27583 0.00000 273.73876 0.00000 -999.00000 680.00000 -999.00000 
0.45899 0.91440 -0.03290 0.01521 314.40679 0.00000 273.73329 0.00000 -999.00000 680.00000 -999.00000 
0.45642 0.91440 -0.03303 0.01295 315.51924 0.00000 273.72792 0.00000 -999.00000 680.00000 -999.00000 
0.45384 0.91440 -0.03315 0.01075 316.61167 0.00000 273.72272 0.00000 -999.00000 680.00000 -999.00000 
0.45127 0.91440 -0.03327 0.00861 317.67512 0.00000 273.71763 0.00000 -999.00000 680.00000 -999.00000 
0.44870 0.91440 -0.03339 0.00647 318.71984 0.00000 273.71257 0.00000 -999.00000 680.00000 -999.00000 
0.44613 0.91440 -0.03351 0.00442 319.75748 0.00000 273.70769 0.00000 -999.00000 680.00000 -999.00000 
0.44356 0.91440 -0.03363 0.00241 320.77021 0.00000 273.70293 0.00000 -999.00000 680.00000 -999.00000 
0.44099 0.91440 -0.03374 0.00040 321.76336 0.00000 273.69817 0.00000 -999.00000 680.00000 -999.00000 
0.43841 0.91440 -0.03386 -0.00153 322.74963 0.00000 273.69359 0.00000 -999.00000 680.00000 -999.00000 
0.43584 0.91440 -0.03397 -0.00345 323.71498 0.00000 273.68904 0.00000 -999.00000 680.00000 -999.00000 
0.43327 0.91440 -0.03408 -0.00533 324.66784 0.00000 273.68460 0.00000 -999.00000 680.00000 -999.00000 
0.43070 0.91440 -0.03419 -0.00716 325.60511 0.00000 273.68024 0.00000 -999.00000 680.00000 -999.00000 
0.42813 0.91440 -0.03430 -0.00898 326.52833 0.00000 273.67592 0.00000 -999.00000 680.00000 -999.00000 
0.42555 0.91440 -0.03440 -0.01076 327.44303 0.00000 273.67172 0.00000 -999.00000 680.00000 -999.00000 
0.42298 0.91440 -0.03450 -0.01252 328.34417 0.00000 273.66755 0.00000 -999.00000 680.00000 -999.00000 
0.42041 0.91440 -0.03461 -0.01425 329.23748 0.00000 273.66345 0.00000 -999.00000 680.00000 -999.00000 
0.41784 0.91440 -0.03471 -0.01595 330.12281 0.00000 273.65969 0.00000 -999.00000 680.00000 -999.00000 
0.41527 0.91440 -0.03481 -0.01763 331.00192 0.00000 273.65597 0.00000 -999.00000 680.00000 -999.00000 
0.41269 0.91440 -0.03490 -0.01928 331.87516 0.00000 273.65206 0.00000 -999.00000 680.00000 -999.00000 
0.41012 0.91440 -0.03500 -0.02092 332.74057 0.00000 273.64818 0.00000 -999.00000 680.00000 -999.00000 
0.40755 0.91440 -0.03509 -0.02252 333.59849 0.00000 273.64440 0.00000 -999.00000 680.00000 -999.00000 
0.40498 0.91440 -0.03519 -0.02412 334.44825 0.00000 273.64059 0.00000 -999.00000 680.00000 -999.00000 
0.40240 0.91440 -0.03528 -0.02569 335.30028 0.00000 273.63689 0.00000 -999.00000 680.00000 -999.00000 
0.39983 0.91440 -0.03537 -0.02722 336.14097 0.00000 273.63326 0.00000 -999.00000 680.00000 -999.00000 
0.39726 0.91440 -0.03545 -0.02877 336.97338 0.00000 273.62960 0.00000 -999.00000 680.00000 -999.00000 
0.39468 0.91440 -0.03554 -0.03025 337.80461 0.00000 273.62609 0.00000 -999.00000 680.00000 -999.00000 
0.39211 0.91440 -0.03562 -0.03176 338.62484 0.00000 273.62250 0.00000 -999.00000 680.00000 -999.00000 
0.38954 0.91440 -0.03571 -0.03322 339.45117 0.00000 273.61904 0.00000 -999.00000 680.00000 -999.00000 
0.38697 0.91440 -0.03579 -0.03466 340.26407 0.00000 273.61565 0.00000 -999.00000 680.00000 -999.00000 
0.38439 0.91440 -0.03587 -0.03613 341.06932 0.00000 273.61217 0.00000 -999.00000 680.00000 -999.00000 
0.38182 0.91440 -0.03594 -0.03753 341.88048 0.00000 273.60885 0.00000 -999.00000 680.00000 -999.00000 
0.37925 0.91440 -0.03602 -0.03894 342.67898 0.00000 273.60551 0.00000 -999.00000 680.00000 -999.00000 
0.37667 0.91440 -0.03609 -0.04035 343.48119 0.00000 273.60218 0.00000 -999.00000 680.00000 -999.00000 
0.37410 0.91440 -0.03617 -0.04170 344.28438 0.00000 273.59897 0.00000 -999.00000 680.00000 -999.00000 
0.37153 0.91440 -0.03624 -0.04308 345.07816 0.00000 273.59570 0.00000 -999.00000 680.00000 -999.00000 
0.36895 0.91440 -0.03631 -0.04446 345.88689 0.00000 273.59245 0.00000 -999.00000 680.00000 -999.00000 
0.36638 0.91440 -0.03637 -0.04577 346.70007 0.00000 273.58933 0.00000 -999.00000 680.00000 -999.00000 
0.36381 0.91440 -0.03644 -0.04711 347.50142 0.00000 273.58616 0.00000 -999.00000 680.00000 -999.00000 
0.36123 0.91440 -0.03650 -0.04845 348.31243 0.00000 273.58300 0.00000 -999.00000 680.00000 -999.00000 
0.35866 0.91440 -0.03657 -0.04973 349.12775 0.00000 273.57997 0.00000 -999.00000 680.00000 -999.00000 
0.35609 0.91440 -0.03663 -0.05101 349.92577 0.00000 273.57695 0.00000 -999.00000 680.00000 -999.00000 
0.35351 0.91440 -0.03668 -0.05232 350.72628 0.00000 273.57384 0.00000 -999.00000 680.00000 -999.00000 
0.35094 0.91440 -0.03674 -0.05360 351.54615 0.00000 273.57083 0.00000 -999.00000 680.00000 -999.00000 
0.34837 0.91440 -0.03680 -0.05484 352.36353 0.00000 273.56789 0.00000 -999.00000 680.00000 -999.00000 
0.34579 0.91440 -0.03685 -0.05611 353.17703 0.00000 273.56490 0.00000 -999.00000 680.00000 -999.00000 
0.34322 0.91440 -0.03690 -0.05735 354.00155 0.00000 273.56196 0.00000 -999.00000 680.00000 -999.00000 
0.34064 0.91440 -0.03695 -0.05859 354.83480 0.00000 273.55903 0.00000 -999.00000 680.00000 -999.00000 
0.33807 0.91440 -0.03700 -0.05980 355.67405 0.00000 273.55616 0.00000 -999.00000 680.00000 -999.00000 
0.33550 0.91440 -0.03704 -0.06102 356.51472 0.00000 273.55330 0.00000 -999.00000 680.00000 -999.00000 
0.33292 0.91440 -0.03709 -0.06222 357.35928 0.00000 273.55047 0.00000 -999.00000 680.00000 -999.00000 
0.33035 0.91440 -0.03713 -0.06341 358.20862 0.00000 273.54765 0.00000 -999.00000 680.00000 -999.00000 
0.32777 0.91440 -0.03717 -0.06460 359.06759 0.00000 273.54485 0.00000 -999.00000 680.00000 -999.00000 
0.32520 0.91440 -0.03721 -0.06577 359.93878 0.00000 273.54207 0.00000 -999.00000 680.00000 -999.00000 
0.32263 0.91440 -0.03724 -0.06693 360.81949 0.00000 273.53933 0.00000 -999.00000 680.00000 -999.00000 
0.32005 0.91440 -0.03728 -0.06809 361.70892 0.00000 273.53661 0.00000 -999.00000 680.00000 -999.00000 
0.31748 0.91440 -0.03731 -0.06923 362.60838 0.00000 273.53391 0.00000 -999.00000 680.00000 -999.00000 
0.31490 0.91440 -0.03734 -0.07037 363.51937 0.00000 273.53123 0.00000 -999.00000 680.00000 -999.00000 
0.31233 0.91440 -0.03737 -0.07149 364.43981 0.00000 273.52859 0.00000 -999.00000 680.00000 -999.00000 
0.30976 0.91440 -0.03739 -0.07261 365.36873 0.00000 273.52596 0.00000 -999.00000 680.00000 -999.00000 
0.30718 0.91440 -0.03742 -0.07371 366.30555 0.00000 273.52337 0.00000 -999.00000 680.00000 -999.00000 
0.30461 0.91440 -0.03744 -0.07480 367.24861 0.00000 273.52079 0.00000 -999.00000 680.00000 -999.00000 
0.30203 0.91440 -0.03746 -0.07588 368.19818 0.00000 273.51824 0.00000 -999.00000 680.00000 -999.00000 
0.29946 0.91440 -0.03747 -0.07696 369.15257 0.00000 273.51571 0.00000 -999.00000 680.00000 -999.00000 
0.29689 0.91440 -0.03749 -0.07803 370.11191 0.00000 273.51320 0.00000 -999.00000 680.00000 -999.00000 
0.29431 0.91440 -0.03750 -0.07908 371.07344 0.00000 273.51072 0.00000 -999.00000 680.00000 -999.00000 
0.29174 0.91440 -0.03751 -0.08013 372.03878 0.00000 273.50825 0.00000 -999.00000 680.00000 -999.00000 
0.28916 0.91440 -0.03752 -0.08116 373.01143 0.00000 273.50581 0.00000 -999.00000 680.00000 -999.00000 
0.28659 0.91440 -0.03753 -0.08220 373.99083 0.00000 273.50338 0.00000 -999.00000 680.00000 -999.00000 
0.28401 0.91440 -0.03753 -0.08321 374.97688 0.00000 273.50101 0.00000 -999.00000 680.00000 -999.00000 
0.28144 0.91440 -0.03753 -0.08422 375.95981 0.00000 273.49863 0.00000 -999.00000 680.00000 -999.00000 
0.27887 0.91440 -0.03753 -0.08521 376.94367 0.00000 273.49631 0.00000 -999.00000 680.00000 -999.00000 
0.27629 0.91440 -0.03752 -0.08620 377.93516 0.00000 273.49398 0.00000 -999.00000 680.00000 -999.00000 
0.27372 0.91440 -0.03752 -0.08716 378.93388 0.00000 273.49171 0.00000 -999.00000 680.00000 -999.00000 
0.27114 0.91440 -0.03751 -0.08813 379.93606 0.00000 273.48945 0.00000 -999.00000 680.00000 -999.00000 
0.26857 0.91440 -0.03750 -0.08907 380.94343 0.00000 273.48724 0.00000 -999.00000 680.00000 -999.00000 
0.26599 0.91440 -0.03748 -0.09000 381.95301 0.00000 273.48505 0.00000 -999.00000 680.00000 -999.00000 
0.26342 0.91440 -0.03746 -0.09092 382.96840 0.00000 273.48289 0.00000 -999.00000 680.00000 -999.00000 
0.26085 0.91440 -0.03744 -0.09182 383.98960 0.00000 273.48079 0.00000 -999.00000 680.00000 -999.00000 
0.25827 0.91440 -0.03742 -0.09271 385.01713 0.00000 273.47869 0.00000 -999.00000 680.00000 -999.00000 
0.25570 0.91440 -0.03740 -0.09357 386.05427 0.00000 273.47666 0.00000 -999.00000 680.00000 -999.00000 
0.25312 0.91440 -0.03737 -0.09444 387.09958 0.00000 273.47464 0.00000 -999.00000 680.00000 -999.00000 
0.25055 0.91440 -0.03734 -0.09527 388.15411 0.00000 273.47270 0.00000 -999.00000 680.00000 -999.00000 
0.24798 0.91440 -0.03730 -0.09610 389.21616 0.00000 273.47075 0.00000 -999.00000 680.00000 -999.00000 
0.24540 0.91440 -0.03727 -0.09689 390.28957 0.00000 273.46889 0.00000 -999.00000 680.00000 -999.00000 
0.24283 0.91440 -0.03723 -0.09769 391.37324 0.00000 273.46703 0.00000 -999.00000 680.00000 -999.00000 
0.24025 0.91440 -0.03718 -0.09845 392.46987 0.00000 273.46526 0.00000 -999.00000 680.00000 -999.00000 
0.23768 0.91440 -0.03714 -0.09920 393.57846 0.00000 273.46350 0.00000 -999.00000 680.00000 -999.00000 
0.23511 0.91440 -0.03709 -0.09992 394.70296 0.00000 273.46181 0.00000 -999.00000 680.00000 -999.00000 
0.23253 0.91440 -0.03703 -0.10062 395.84094 0.00000 273.46019 0.00000 -999.00000 680.00000 -999.00000 
0.22996 0.91440 -0.03698 -0.10130 396.99611 0.00000 273.45859 0.00000 -999.00000 680.00000 -999.00000 
0.22738 0.91440 -0.03692 -0.10196 398.17411 0.00000 273.45707 0.00000 -999.00000 680.00000 -999.00000 
0.22481 0.91440 -0.03686 -0.10259 399.37679 0.00000 273.45560 0.00000 -999.00000 680.00000 -999.00000 
0.22224 0.91440 -0.03679 -0.10320 400.60684 0.00000 273.45420 0.00000 -999.00000 680.00000 -999.00000 
0.21966 0.91440 -0.03672 -0.10377 401.86703 0.00000 273.45287 0.00000 -999.00000 680.00000 -999.00000 
0.21709 0.91440 -0.03665 -0.10432 403.16020 0.00000 273.45161 0.00000 -999.00000 680.00000 -999.00000 
0.21452 0.91440 -0.03657 -0.10483 404.48465 0.00000 273.45043 0.00000 -999.00000 680.00000 -999.00000 
0.21195 0.91440 -0.03649 -0.10532 405.84035 0.00000 273.44903 0.00000 -999.00000 680.00000 -999.00000 
0.20937 0.91440 -0.03641 -0.10577 407.22260 0.00000 273.44773 0.00000 -999.00000 680.00000 -999.00000 
0.20680 0.91440 -0.03632 -0.10619 408.62539 0.00000 273.44677 0.00000 -999.00000 680.00000 -999.00000 
0.20423 0.91440 -0.03622 -0.10657 410.04521 0.00000 273.44592 0.00000 -999.00000 680.00000 -999.00000 
0.20165 0.91440 -0.03613 -0.10692 411.47619 0.00000 273.44512 0.00000 -999.00000 680.00000 -999.00000 
0.19908 0.91440 -0.03603 -0.10723 412.91683 0.00000 273.44443 0.00000 -999.00000 680.00000 -999.00000 
0.19651 0.91440 -0.03592 -0.10750 414.36249 0.00000 273.44383 0.00000 -999.00000 680.00000 -999.00000 
0.19394 0.91440 -0.03582 -0.10774 415.81522 0.00000 273.44330 0.00000 -999.00000 680.00000 -999.00000 
0.19137 0.91440 -0.03570 -0.10792 417.27080 0.00000 273.44292 0.00000 -999.00000 680.00000 -999.00000 
0.18879 0.91440 -0.03559 -0.10809 418.72644 0.00000 273.44257 0.00000 -999.00000 680.00000 -999.00000 
0.18622 0.91440 -0.03546 -0.10817 420.18434 0.00000 273.44240 0.00000 -999.00000 680.00000 -999.00000 
0.18365 0.91440 -0.03534 -0.10825 421.64139 0.00000 273.44226 0.00000 -999.00000 680.00000 -999.00000 
0.18108 0.91440 -0.03521 -0.10825 423.10451 0.00000 273.44230 0.00000 -999.00000 680.00000 -999.00000 
0.17851 0.91440 -0.03507 -0.10822 424.56696 0.00000 273.44242 0.00000 -999.00000 680.00000 -999.00000 
0.17594 0.91440 -0.03493 -0.10815 426.04033 0.00000 273.44264 0.00000 -999.00000 680.00000 -999.00000 
0.17337 0.91440 -0.03479 -0.10797 427.51791 0.00000 273.44309 0.00000 -999.00000 680.00000 -999.00000 
0.17080 0.91440 -0.03464 -0.10781 429.00592 0.00000 273.44351 0.00000 -999.00000 680.00000 -999.00000 
0.16823 0.91440 -0.03448 -0.10755 430.52719 0.00000 273.44419 0.00000 -999.00000 680.00000 -999.00000 
0.16566 0.91440 -0.03432 -0.10721 432.06234 0.00000 273.44505 0.00000 -999.00000 680.00000 -999.00000 
0.16309 0.91440 -0.03416 -0.10686 433.63081 0.00000 273.44591 0.00000 -999.00000 680.00000 -999.00000 
0.16052 0.91440 -0.03399 -0.10639 435.25540 0.00000 273.44710 0.00000 -999.00000 680.00000 -999.00000 
0.15796 0.91440 -0.03381 -0.10582 436.91449 0.00000 273.44849 0.00000 -999.00000 680.00000 -999.00000 
0.15539 0.91440 -0.03363 -0.10524 438.63453 0.00000 273.44992 0.00000 -999.00000 680.00000 -999.00000 
0.15282 0.91440 -0.03344 -0.10452 440.43712 0.00000 273.45169 0.00000 -999.00000 680.00000 -999.00000 
0.15025 0.91440 -0.03325 -0.10369 442.28418 0.00000 273.45372 0.00000 -999.00000 680.00000 -999.00000 
0.14769 0.91440 -0.03305 -0.10282 444.17080 0.00000 273.45584 0.00000 -999.00000 680.00000 -999.00000 
0.14512 0.91440 -0.03285 -0.10187 446.11713 0.00000 273.45816 0.00000 -999.00000 680.00000 -999.00000 
0.14255 0.91440 -0.03263 -0.10078 448.10534 0.00000 273.46081 0.00000 -999.00000 680.00000 -999.00000 
0.13999 0.91440 -0.03242 -0.09958 450.10313 0.00000 273.46371 0.00000 -999.00000 680.00000 -999.00000 
0.13743 0.91440 -0.03219 -0.09833 452.11358 0.00000 273.46675 0.00000 -999.00000 680.00000 -999.00000 
0.13486 0.91440 -0.03196 -0.09698 454.14896 0.00000 273.47003 0.00000 -999.00000 680.00000 -999.00000 
0.13230 0.91440 -0.03172 -0.09552 456.19683 0.00000 273.47354 0.00000 -999.00000 680.00000 -999.00000 
0.12974 0.91440 -0.03148 -0.09393 458.23558 0.00000 273.47739 0.00000 -999.00000 680.00000 -999.00000 
0.12717 0.91440 -0.03123 -0.09220 460.24687 0.00000 273.48156 0.00000 -999.00000 680.00000 -999.00000 
0.12461 0.91440 -0.03097 -0.09036 462.24018 0.00000 273.48600 0.00000 -999.00000 680.00000 -999.00000 
0.12205 0.91440 -0.03070 -0.08838 464.23790 0.00000 273.49078 0.00000 -999.00000 680.00000 -999.00000 
0.11949 0.91440 -0.03043 -0.08625 466.25490 0.00000 273.49590 0.00000 -999.00000 680.00000 -999.00000 
0.11693 0.91440 -0.03015 -0.08397 468.30085 0.00000 273.50140 0.00000 -999.00000 680.00000 -999.00000 
0.11438 0.91440 -0.02986 -0.08151 470.38087 0.00000 273.50732 0.00000 -999.00000 680.00000 -999.00000 
0.11182 0.91440 -0.02956 -0.07887 472.49428 0.00000 273.51367 0.00000 -999.00000 680.00000 -999.00000 
0.10924 0.91440 -0.02925 -0.07609 474.62729 0.00000 273.52032 0.00000 -999.00000 680.00000 -999.00000 
0.10679 0.91440 -0.02894 -0.07325 476.77989 0.00000 273.52710 0.00000 -999.00000 680.00000 -999.00000 
0.10445 0.91440 -0.02865 -0.07038 478.92033 0.00000 273.53390 0.00000 -999.00000 680.00000 -999.00000 
0.10222 0.91440 -0.02836 -0.06745 480.97924 0.00000 273.54106 0.00000 -999.00000 680.00000 -999.00000 
0.10011 0.91440 -0.02808 -0.06456 482.94560 0.00000 273.54812 0.00000 -999.00000 680.00000 -999.00000 
0.09809 0.91440 -0.02780 -0.06166 484.84772 0.00000 273.55500 0.00000 -999.00000 680.00000 -999.00000 
0.09617 0.91440 -0.02754 -0.05870 486.66445 0.00000 273.56212 0.00000 -999.00000 680.00000 -999.00000 
0.09434 0.91440 -0.02728 -0.05579 488.37495 0.00000 273.56911 0.00000 -999.00000 680.00000 -999.00000 
0.09260 0.91440 -0.02702 -0.05291 489.99498 0.00000 273.57603 0.00000 -999.00000 680.00000 -999.00000 
0.09095 0.91440 -0.02678 -0.05009 491.52026 0.00000 273.58279 0.00000 -999.00000 680.00000 -999.00000 
0.08937 0.91440 -0.02654 -0.04724 492.88442 0.00000 273.58965 0.00000 -999.00000 680.00000 -999.00000 
0.08787 0.91440 -0.02631 -0.04524 494.26285 0.00000 273.59445 0.00000 -999.00000 680.00000 -999.00000 
0.08644 0.91440 -0.02609 -0.04158 496.65050 0.00000 273.60326 0.00000 -999.00000 680.00000 -999.00000 
0.08501 0.91440 -0.02586 -0.03766 499.04431 0.00000 273.61268 0.00000 -999.00000 680.00000 -999.00000 
0.08359 0.91440 -0.02563 -0.03545 500.47339 0.00000 273.61800 0.00000 -999.00000 680.00000 -999.00000 
0.08216 0.91440 -0.02540 -0.03244 501.98521 0.00000 273.62522 0.00000 -999.00000 680.00000 -999.00000 
0.08073 0.91440 -0.02516 -0.02926 503.69197 0.00000 273.63287 0.00000 -999.00000 680.00000 -999.00000 
0.07931 0.91440 -0.02492 -0.02593 505.43115 0.00000 273.64087 0.00000 -999.00000 680.00000 -999.00000 
0.07788 0.91440 -0.02467 -0.02247 507.17494 0.00000 273.64921 0.00000 -999.00000 680.00000 -999.00000 
0.07646 0.91440 -0.02442 -0.01889 508.92078 0.00000 273.65783 0.00000 -999.00000 680.00000 -999.00000 
0.07503 0.91440 -0.02417 -0.01517 510.67736 0.00000 273.66676 0.00000 -999.00000 680.00000 -999.00000 
0.07361 0.91440 -0.02391 -0.01132 512.45186 0.00000 273.67603 0.00000 -999.00000 680.00000 -999.00000 
0.07219 0.91440 -0.02365 -0.00732 514.25457 0.00000 273.68564 0.00000 -999.00000 680.00000 -999.00000 
0.07077 0.91440 -0.02339 -0.00318 516.09983 0.00000 273.69561 0.00000 -999.00000 680.00000 -999.00000 
0.06935 0.91440 -0.02312 0.00112 517.99952 0.00000 273.70595 0.00000 -999.00000 680.00000 -999.00000 
0.06793 0.91440 -0.02284 0.00557 519.95954 0.00000 273.71668 0.00000 -999.00000 680.00000 -999.00000 
0.06651 0.91440 -0.02256 0.01016 521.99679 0.00000 273.72772 0.00000 -999.00000 680.00000 -999.00000 
0.06509 0.91440 -0.02228 0.01490 524.14247 0.00000 273.73914 0.00000 -999.00000 680.00000 -999.00000 
0.06367 0.91440 -0.02199 0.01985 526.39668 0.00000 273.75108 0.00000 -999.00000 680.00000 -999.00000 
0.06226 0.91440 -0.02169 0.02502 528.73482 0.00187 273.76222 0.00000 -999.00000 680.00000 -999.00000 
0.06084 0.91440 -0.02139 0.03040 531.15284 0.00568 273.77252 0.00000 -999.00000 680.00000 -999.00000 
0.05943 0.91440 -0.02109 0.03597 533.67064 0.00965 273.78317 0.00000 -999.00000 680.00000 -999.00000 
0.05802 0.91440 -0.02078 0.04177 536.29851 0.01386 273.79423 0.00000 -999.00000 680.00000 -999.00000 
0.05660 0.91440 -0.02046 0.04783 539.01449 0.01828 273.80577 0.00000 -999.00000 680.00000 -999.00000 
0.05519 0.91440 -0.02014 0.05413 541.79462 0.02290 273.81777 0.00000 -999.00000 680.00000 -999.00000 
0.05379 0.91440 -0.01981 0.06072 544.60369 0.02770 273.83037 0.00000 -999.00000 680.00000 -999.00000 
0.05238 0.91440 -0.01948 0.06758 547.40330 0.03268 273.84350 0.00000 -999.00000 680.00000 -999.00000 
0.05097 0.91440 -0.01914 0.07476 550.15782 0.03786 273.85726 0.00000 -999.00000 680.00000 -999.00000 
0.04957 0.91440 -0.01879 0.08226 552.82590 0.04322 273.87167 0.00000 -999.00000 680.00000 -999.00000 
0.04817 0.91440 -0.01844 0.09005 555.38681 0.04877 273.88673 0.00000 -999.00000 680.00000 -999.00000 
0.04677 0.91440 -0.01808 0.09822 557.82123 0.05457 273.90225 0.00000 -999.00000 680.00000 -999.00000 
0.04537 0.91440 -0.01771 0.10677 560.11792 0.06065 273.91845 0.00000 -999.00000 680.00000 -999.00000 
0.04397 0.91440 -0.01734 0.11573 562.30782 0.06698 273.93573 0.00000 -999.00000 680.00000 -999.00000 
0.04258 0.91440 -0.01695 0.12513 564.46195 0.07354 273.95384 0.00000 -999.00000 680.00000 -999.00000 
0.04118 0.91440 -0.01656 0.13493 566.68674 0.08035 273.97272 0.00000 -999.00000 680.00000 -999.00000 
0.03979 0.91440 -0.01617 0.14502 569.15464 0.08745 273.99210 0.00000 -999.00000 680.00000 -999.00000 
0.03841 0.91440 -0.01576 0.15555 572.03458 0.09486 274.01229 0.00000 -999.00000 680.00000 -999.00000 
0.03702 0.91440 -0.01534 0.16675 575.27272 0.10264 274.03386 0.00000 -999.00000 680.00000 -999.00000 
0.03564 0.91440 -0.01492 0.17865 578.65458 0.11076 274.05681 0.00000 -999.00000 680.00000 -999.00000 
0.03426 0.91440 -0.01448 0.19121 582.05024 0.11918 274.08133 0.00000 -999.00000 680.00000 -999.00000 
0.03288 0.91440 -0.01404 0.20457 585.37422 0.12792 274.10746 0.00000 -999.00000 680.00000 -999.00000 
0.03151 0.91440 -0.01358 0.21878 588.46009 0.13702 274.13511 0.00000 -999.00000 680.00000 -999.00000 
0.03014 0.91440 -0.01312 0.23385 591.11545 0.14658 274.16443 0.00000 -999.00000 680.00000 -999.00000 
0.02878 0.91440 -0.01264 0.24984 593.29103 0.15668 274.19546 0.00000 -999.00000 680.00000 -999.00000 
0.02742 0.91440 -0.01215 0.26657 595.24407 0.16730 274.22774 0.00000 -999.00000 680.00000 -999.00000 
0.02606 0.91440 -0.01164 0.28405 597.46064 0.17847 274.26139 0.00000 -999.00000 680.00000 -999.00000 
0.02471 0.91440 -0.01113 0.30269 600.02588 0.19015 274.29741 0.00000 -999.00000 680.00000 -999.00000 
0.02337 0.91440 -0.01060 0.32284 602.22199 0.20243 274.33638 0.00000 -999.00000 680.00000 -999.00000 
0.02203 0.91440 -0.01005 0.34456 603.21733 0.21546 274.37807 0.00000 -999.00000 680.00000 -999.00000 
0.02070 0.91440 -0.00949 0.36788 603.00820 0.22940 274.42237 0.00000 -999.00000 680.00000 -999.00000 
0.01937 0.91440 -0.00890 0.39253 602.67690 0.24427 274.46881 0.00000 -999.00000 680.00000 -999.00000 
0.01806 0.91440 -0.00830 0.41901 603.19654 0.26007 274.51887 0.00000 -999.00000 680.00000 -999.00000 
0.01675 0.91440 -0.00768 0.44825 603.46726 0.27695 274.57437 0.00000 -999.00000 680.00000 -999.00000 
0.01545 0.91440 -0.00704 0.47978 601.51408 0.29509 274.63302 0.00000 -999.00000 680.00000 -999.00000 
0.01417 0.91440 -0.00637 0.51342 597.38057 0.31455 274.69395 0.00000 -999.00000 680.00000 -999.00000 
0.01290 0.91440 -0.00568 0.55001 592.37099 0.33532 274.75966 0.00000 -999.00000 680.00000 -999.00000 
0.01165 0.91440 -0.00496 0.58949 586.92362 0.35774 274.82971 0.00000 -999.00000 680.00000 -999.00000 
0.01041 0.91440 -0.00421 0.63268 580.49841 0.38227 274.90500 0.00000 -999.00000 680.00000 -999.00000 
0.00920 0.91440 -0.00342 0.68014 572.75456 0.40906 274.98579 0.00000 -999.00000 680.00000 -999.00000 
0.00802 0.91440 -0.00259 0.73149 564.81171 0.43805 275.07176 0.00000 -999.00000 680.00000 -999.00000 
0.00686 0.91440 -0.00172 0.78575 557.33955 0.46926 275.16116 0.00000 -999.00000 680.00000 -999.00000 
0.00579 0.91440 -0.00084 0.84011 549.91439 0.50209 275.19684 0.00000 -999.00000 680.00000 -999.00000 
0.00483 0.91440 0.00003 0.89309 543.14859 0.53520 275.17081 0.00000 -999.00000 680.00000 -999.00000 
0.00398 0.91440 0.00089 0.94099 535.09425 0.56766 275.13181 0.00000 -999.00000 680.00000 -999.00000 
0.00324 0.91440 0.00172 0.98094 523.83279 0.59936 275.08442 0.00000 -999.00000 680.00000 -999.00000 
0.00260 0.91440 0.00252 1.01183 513.09190 0.62984 275.03485 0.00000 -999.00000 680.00000 -999.00000 
0.00205 0.91440 0.00332 1.02991 498.42272 0.65811 274.99180 0.00000 -999.00000 680.00000 -999.00000 
0.00158 0.91440 0.00410 1.03068 518.14690 0.68304 274.99558 0.00000 -999.00000 680.00000 -999.00000 
0.00119 0.91440 0.00487 1.01068 578.36427 0.70348 275.04634 0.00000 -999.00000 680.00000 -999.00000 
0.00087 0.91440 0.00562 0.96728 643.44105 0.71854 275.10239 0.00000 -999.00000 680.00000 -999.00000 
0.00064 0.91440 0.00636 0.89934 715.33648 0.72790 275.15202 0.00000 -999.00000 680.00000 -999.00000 
0.00046 0.91440 0.00710 0.80572 792.19122 0.73095 275.12291 0.00000 -999.00000 680.00000 -999.00000 
0.00035 0.91440 0.00784 0.68443 871.80402 0.72692 274.94121 0.00000 -999.00000 680.00000 -999.00000 
0.00031 0.91440 0.00858 0.53590 947.95450 0.71514 274.64497 0.00000 -999.00000 680.00000 -999.00000 
0.00032 0.91440 0.00930 0.45501 984.22347 0.70713 274.47982 0.00000 -999.00000 680.00000 -999.00000 
0.00041 0.91440 0.01002 0.17914 1062.72896 0.66741 273.89595 0.00000 -999.00000 680.00000 -999.00000 
0.00055 0.91440 0.01074 -0.01376 1111.63989 0.63344 273.48487 0.00000 -999.00000 680.00000 -999.00000 
0.00076 0.91440 0.01145 -0.21344 1147.46674 0.59301 273.21100 0.00223 -999.00000 680.00000 -999.00000 
0.00104 0.91440 0.01216 -0.40998 1168.78823 0.54626 273.15000 0.00731 -999.00000 680.00000 -999.00000 
0.00137 0.91440 0.01285 -0.59313 1176.47115 0.49459 273.15000 0.01278 -999.00000 680.00000 -999.00000 
0.00179 0.91440 0.01356 -0.75935 1173.41468 0.44004 273.15000 0.01789 -999.00000 680.00000 -999.00000 
0.00228 0.91440 0.01426 -0.90514 1159.60833 0.38411 273.15000 0.02255 -999.00000 680.00000 -999.00000 
0.00284 0.91440 0.01497 -1.02804 1138.06975 0.32753 273.15000 0.02682 -999.00000 680.00000 -999.00000 
0.00350 0.91440 0.01567 -1.13140 1113.01052 0.27039 273.15000 0.03087 -999.00000 680.00000 -999.00000 